/*--------------------------------*- C++ -*----------------------------------*\
| =========                 |                                                 |
| \\      /  F ield         | OpenFOAM: The Open Source CFD Toolbox           |
|  \\    /   O peration     | Version:  v1912                                 |
|   \\  /    A nd           | Website:  www.openfoam.com                      |
|    \\/     M anipulation  |                                                 |
\*---------------------------------------------------------------------------*/
FoamFile
{
    version     2.0;
    format      ascii;
    class       volScalarField;
    location    "250";
    object      epsilon;
}
// * * * * * * * * * * * * * * * * * * * * * * * * * * * * * * * * * * * * * //

dimensions      [0 2 -3 0 0 0 0];


internalField   nonuniform List<scalar> 
3072
(
4.962
3.91133
4.76359
4.45474
4.08254
5.41859
21.7773
58.674
79.8288
90.7224
98.9906
102.909
13.1323
10.8395
10.1827
12.8058
27.0859
38.0143
43.8683
56.7875
61.7383
63.408
64.325
64.339
20.3553
19.8747
28.1269
29.4458
31.4995
37.9253
43.8724
49.2692
51.2506
52.6948
53.4722
53.6518
27.2166
24.0574
27.9987
28.9467
32.1287
37.7141
42.3464
45.0069
46.824
48.2214
48.941
49.1723
30.1912
25.5856
28.0144
29.1293
32.4769
37.0759
40.4783
42.8579
44.5904
45.9863
46.8125
47.1569
29.2738
24.6662
27.039
28.813
32.1762
35.9831
39.1058
41.3531
43.0682
44.4627
45.4742
46.0632
26.1567
21.8943
24.6769
27.7316
31.6654
35.454
38.4721
40.7177
42.4628
43.8859
44.9908
45.7558
23.2069
18.8298
22.7113
27.6749
32.3084
36.2656
39.3016
41.5496
43.2765
44.6636
45.7571
46.5608
21.5718
17.5847
23.7689
30.4898
36.4363
40.7798
43.7368
45.74
47.1387
48.1621
48.9148
49.4317
21.9745
20.0717
32.4572
43.1705
50.4818
54.5282
56.398
57.0669
57.0608
56.7179
56.2183
55.6219
25.6641
36.7534
62.4883
77.9843
83.7319
84.1069
81.8168
78.4272
74.8046
71.3161
68.1304
65.2529
116.298
116.203
129.719
133.178
129.643
120.976
111.804
103.006
94.9893
87.7687
81.384
75.759
104.614
103.457
101.493
98.0556
92.5493
85.3108
76.3053
65.4215
52.7324
39.0428
26.1757
34.9316
63.7231
62.1961
60.5458
58.9847
57.8586
57.6911
59.4736
63.7432
69.6357
75.7129
82.2918
104.146
53.1287
51.9969
50.6088
49.3861
48.9212
49.268
51.638
56.5846
65.2996
79.6028
103.278
155.103
48.9337
48.264
47.3536
46.4933
46.1369
46.549
48.7563
53.7172
63.1446
80.3604
114.059
193.678
47.1299
46.705
46.0197
45.3335
45.0262
45.4453
47.4665
52.1444
61.3934
79.5132
119.363
220.812
46.2637
46.1042
45.6708
45.1837
44.9557
45.4057
47.3141
51.8043
60.88
79.2413
122.755
246.027
46.1769
46.2664
46.1005
45.8448
45.7721
46.2712
48.0305
52.2168
60.9652
78.9674
123.953
267.16
47.0827
47.3425
47.359
47.2678
47.325
47.8247
49.395
53.2268
61.5772
79.2064
124.787
293.843
49.7431
49.8246
49.709
49.5177
49.4977
49.8913
51.1799
54.5469
62.3338
79.4973
125.738
322.731
54.9547
54.2236
53.4566
52.7341
52.2379
52.3109
53.1856
55.9398
62.8975
79.505
126.31
352.398
62.6731
60.3816
58.3603
56.6399
55.2945
54.6338
55.0284
56.9391
62.886
78.6671
126.641
387.962
70.8453
66.6412
63.075
60.1125
57.7555
56.1354
55.9287
57.1262
61.6488
75.6577
123.467
446.038
5.00636
3.94312
4.79808
4.49164
4.10558
5.41992
21.5898
58.4402
79.6273
90.5089
98.7805
102.7
13.1501
10.8513
10.2198
12.8144
27.029
37.9437
43.7191
56.6481
61.6265
63.2951
64.2106
64.2105
20.3665
19.8537
28.082
29.411
31.4354
37.852
43.7673
49.1759
51.1507
52.5939
53.3717
53.5518
27.1967
24.0229
27.9569
28.9014
32.0591
37.6227
42.2728
44.9234
46.7342
48.1308
48.8515
49.0841
30.1455
25.5451
27.9717
29.0824
32.4176
37.0075
40.4064
42.7806
44.5082
45.9024
46.729
47.0742
29.2266
24.625
26.9945
28.7648
32.1189
35.9203
39.0378
41.2803
42.992
44.3841
45.3951
45.985
26.1146
21.8537
24.6313
27.6814
31.6099
35.395
38.4091
40.6513
42.393
43.814
44.918
45.6834
23.1706
18.7952
22.6686
27.6261
32.2556
36.2103
39.2437
41.4891
43.2135
44.5989
45.6918
46.496
21.5447
17.5567
23.73
30.4464
36.3919
40.7353
43.6916
45.6933
47.0902
48.1119
48.8637
49.3805
21.9494
20.0469
32.4255
43.1408
50.456
54.5054
56.3766
57.0447
57.0361
56.6905
56.1884
55.5904
25.6406
36.7302
62.4706
77.9771
83.7349
84.1149
81.8248
78.4329
74.8064
71.3135
68.1237
65.2428
116.297
116.196
129.713
133.186
129.659
120.997
111.828
103.027
95.0077
87.7829
81.3943
75.7652
104.413
103.262
101.313
97.8867
92.3984
85.1766
76.191
65.3275
52.6605
38.9915
26.1412
34.8837
63.6148
62.0897
60.4499
58.8944
57.7758
57.6107
59.3967
63.6638
69.5515
75.6237
82.1922
104.014
53.0373
51.9111
50.5299
49.3127
48.851
49.201
51.5716
56.5156
65.224
79.5145
103.163
154.924
48.8502
48.1852
47.28
46.4244
46.071
46.486
48.6939
53.6524
63.073
80.2742
113.939
193.459
47.0503
46.6293
45.9483
45.2664
44.9622
45.3842
47.4061
52.0821
61.3251
79.4308
119.245
220.571
46.1875
46.0313
45.6016
45.1185
44.8934
45.3459
47.255
51.7434
60.8139
79.161
122.636
245.767
46.106
46.1979
46.0353
45.783
45.7134
46.2145
47.9745
52.159
60.9015
78.8903
123.84
266.888
47.0195
47.2818
47.3009
47.2128
47.2724
47.7736
49.3443
53.1739
61.5175
79.1332
124.676
293.559
49.6932
49.7761
49.6623
49.4731
49.4547
49.8491
51.1373
54.5018
62.2829
79.4303
125.633
322.436
54.9223
54.1913
53.4248
52.7031
52.2073
52.2798
53.1535
55.9041
62.8545
79.4475
126.213
352.102
62.6605
60.3673
58.3449
56.6237
55.2774
54.6149
55.0082
56.9155
62.8549
78.6212
126.555
387.669
70.8483
66.6416
63.0731
60.1087
57.7497
56.1274
55.9166
57.1116
61.6286
75.6249
123.399
445.736
5.00865
3.94381
4.79342
4.48156
4.10239
5.44476
21.8816
58.7612
79.8835
90.7846
99.0506
102.97
13.1677
10.8723
10.2193
12.8615
27.1566
38.0201
43.9124
56.8282
61.7663
63.4376
64.3546
64.368
20.4373
19.9377
28.1671
29.443
31.5027
37.9238
43.904
49.29
51.2784
52.7229
53.4998
53.6781
27.2868
24.0858
28.0092
28.9513
32.148
37.769
42.3691
45.0306
46.8509
48.2484
48.9674
49.1979
30.2617
25.6027
28.0208
29.1418
32.4941
37.0771
40.4996
42.8791
44.613
46.0096
46.836
47.1802
29.3206
24.682
27.0411
28.8244
32.1919
35.9966
39.1213
41.3691
43.0858
44.4816
45.4941
46.0837
26.1861
21.9046
24.6817
27.738
31.6729
35.4618
38.481
40.7286
42.4759
43.9011
45.0077
45.7739
23.2293
18.8369
22.7133
27.6767
32.3117
36.27
39.3081
41.5587
43.2883
44.6777
45.7732
46.5782
21.5809
17.5871
23.7673
30.4846
36.4323
40.7791
43.7406
45.748
47.1503
48.1764
48.931
49.449
21.9754
20.0677
32.4424
43.1509
50.4647
54.5187
56.3971
57.0729
57.0715
56.7319
56.2342
55.6387
25.6582
36.7329
62.4462
77.9359
83.691
84.0789
81.8023
78.4228
74.8074
71.3238
68.141
65.2652
116.291
116.162
129.659
133.109
129.579
120.925
111.769
102.983
94.9766
87.7631
81.3836
75.7621
104.67
103.509
101.537
98.0909
92.5747
85.3278
76.3149
65.4241
52.7301
39.0373
26.1673
34.9189
63.7476
62.2167
60.5615
58.9962
57.8657
57.6951
59.4717
63.7369
69.6273
75.7019
82.2735
104.118
53.152
52.0177
50.6268
49.4012
48.9341
49.2771
51.6437
56.587
65.2982
79.5976
103.266
155.079
48.9576
48.2862
47.3738
46.5114
46.1532
46.5623
48.7667
53.7245
63.148
80.3589
114.052
193.66
47.1527
46.7269
46.0404
45.3526
45.0438
45.4607
47.4796
52.1551
61.4013
79.5175
119.362
220.801
46.2844
46.1248
45.6908
45.2027
44.9735
45.4218
47.3283
51.8165
60.8903
79.2487
122.757
246.023
46.1958
46.2856
46.1195
45.8631
45.7894
46.2873
48.0453
52.2302
60.9773
78.9779
123.96
267.162
47.1008
47.3608
47.3772
47.2854
47.3417
47.8406
49.4099
53.2408
61.5904
79.2184
124.797
293.854
49.7608
49.8424
49.7266
49.5346
49.5136
49.9066
51.1945
54.561
62.3476
79.5106
125.751
322.753
54.9717
54.2405
53.473
52.7498
52.2527
52.325
53.1993
55.9534
62.9114
79.5194
126.326
352.432
62.6863
60.395
58.3736
56.653
55.3072
54.6461
55.0407
56.9517
62.8996
78.6819
126.658
388.012
70.8509
66.6485
63.0834
60.1215
57.765
56.1454
55.9398
57.138
61.6622
75.6729
123.485
446.122
5.00806
3.94462
4.80024
4.49428
4.10797
5.42128
21.5899
58.4428
79.6268
90.5011
98.7692
102.688
13.1541
10.8553
10.2244
12.8202
27.0434
37.9538
43.7238
56.6494
61.6245
63.291
64.206
64.2067
20.3666
19.8561
28.0929
29.4277
31.4448
37.8535
43.7682
49.1731
51.1459
52.5877
53.3653
53.5459
27.1927
24.0286
27.9658
28.9081
32.0602
37.6317
42.2682
44.9185
46.7274
48.123
48.8435
49.0763
30.1353
25.5505
27.9777
29.0839
32.4137
37.0014
40.4012
42.7747
44.501
45.8943
46.7204
47.0656
29.2179
24.6295
27.0002
28.7655
32.1149
35.9153
39.0326
41.2741
42.9847
44.3759
45.3863
45.9761
26.1073
21.8571
24.636
27.6814
31.6068
35.3905
38.4037
40.6446
42.3852
43.8054
44.9088
45.6741
23.1629
18.7965
22.6711
27.6263
32.253
36.2059
39.2378
41.4818
43.2049
44.5895
45.682
46.4861
21.5402
17.5573
23.7324
30.4476
36.3906
40.7312
43.6851
45.6849
47.0804
48.1012
48.8526
49.3695
21.9477
20.049
32.4308
43.1459
50.4581
54.5032
56.3705
57.0359
57.0254
56.6787
56.1762
55.5783
25.6437
36.738
62.482
77.9872
83.7407
84.1153
81.8198
78.4244
74.7955
71.3013
68.1107
65.2298
116.328
116.21
129.722
133.188
129.658
120.993
111.82
103.016
94.9953
87.7693
81.3801
75.751
104.402
103.254
101.309
97.8866
92.4015
85.1826
76.199
65.3373
52.671
39.0013
26.1516
34.8993
63.6135
62.0904
60.4525
58.8984
57.7812
57.6175
59.4063
63.6761
69.5657
75.6401
82.2163
104.051
53.0324
51.9068
50.5264
49.31
48.8492
49.2009
51.5732
56.5193
65.2306
79.5255
103.183
154.961
48.8429
48.1784
47.2737
46.4186
46.0658
46.482
48.6913
53.6517
63.0755
80.2822
113.956
193.496
47.042
46.6212
45.9405
45.2591
44.9555
45.3785
47.4016
52.0794
61.3252
79.4351
119.259
220.608
46.1787
46.0227
45.5933
45.1108
44.8863
45.3397
47.2501
51.7401
60.8132
79.1644
122.649
245.805
46.0968
46.1891
46.0269
45.7753
45.7064
46.2083
47.9695
52.1556
60.9005
78.893
123.851
266.928
47.0098
47.2725
47.2922
47.2049
47.2653
47.7673
49.3392
53.1704
61.5164
79.1358
124.687
293.603
49.6825
49.7659
49.6529
49.4646
49.4472
49.8424
51.1318
54.4978
62.2811
79.4326
125.644
322.481
54.9106
54.1802
53.4145
52.6936
52.199
52.2725
53.1471
55.8992
62.8519
79.4491
126.225
352.149
62.6478
60.3551
58.3335
56.6132
55.2679
54.6068
55.0012
56.91
62.8516
78.6218
126.566
387.719
70.8345
66.6285
63.061
60.0977
57.7401
56.1193
55.9103
57.1062
61.625
75.6248
123.409
445.792
170.598
164.59
157.414
148.745
140.249
131.074
121.821
112.821
104.232
95.9668
88.301
81.3016
103.073
106.081
108.166
108.962
108.587
106.931
104.219
100.574
95.7129
89.7066
83.6197
77.6319
70.3906
72.7365
74.7538
76.2892
77.4737
77.9348
77.5486
76.4596
74.6863
72.4082
69.5718
66.1611
53.426
54.5983
55.458
55.9774
56.3279
56.4798
56.3229
55.929
55.2753
54.3393
53.1032
51.6466
75.0257
69.6393
65.0524
61.2938
58.3434
56.2594
55.3986
55.9778
58.7193
67.5724
92.7547
185.474
71.8805
66.8119
62.4522
58.8887
56.0893
54.1206
53.0266
53.1863
54.6403
58.9857
70.3167
97.5999
62.2406
58.76
55.6997
53.1577
51.1075
49.6138
48.679
48.5435
49.4489
51.3508
56.688
66.7738
50.1392
48.5251
46.8292
45.2167
43.7899
42.6633
41.9909
41.9438
42.8631
44.1095
47.0679
51.4496
170.649
164.616
157.426
148.749
140.253
131.082
121.833
112.835
104.247
95.9805
88.3132
81.3118
103.088
106.092
108.169
108.956
108.578
106.922
104.211
100.569
95.7124
89.7079
83.6219
77.6346
70.392
72.7381
74.7535
76.2841
77.4648
77.9229
77.5356
76.4467
74.674
72.3964
69.5613
66.1531
53.4197
54.5943
55.4534
55.9709
56.3193
56.4682
56.3097
55.9149
55.2609
54.3252
53.0901
51.6348
75.0338
69.6455
65.0566
61.2959
58.3432
56.257
55.3929
55.9705
58.7083
67.554
92.7186
185.379
71.8831
66.8144
62.4542
58.8898
56.0892
54.1194
53.0239
53.1831
54.6358
58.9781
70.303
97.57
62.2338
58.755
55.6958
53.1544
51.1049
49.6118
48.6783
48.5439
49.4505
51.353
56.6889
66.7717
50.1293
48.5173
46.8234
45.2132
43.7889
42.6653
41.997
41.9519
42.8741
44.122
47.0819
51.4628
170.568
164.557
157.371
148.692
140.194
131.023
121.779
112.788
104.207
95.9491
88.2896
81.2951
103.056
106.069
108.153
108.942
108.562
106.904
104.192
100.548
95.6896
89.6883
83.6061
77.6225
70.388
72.7369
74.7558
76.2898
77.4726
77.9299
77.5421
76.4522
74.6784
72.401
69.5656
66.1564
53.4326
54.6079
55.4688
55.9883
56.3387
56.488
56.3298
55.9347
55.2801
54.3436
53.1078
51.6521
75.0234
69.6403
65.056
61.2994
58.3507
56.268
55.4092
55.9893
58.7328
67.5886
92.7744
185.509
71.8753
66.8106
62.4542
58.8934
56.0963
54.1294
53.0381
53.1991
54.6552
59.0038
70.3391
97.6296
62.2389
58.7619
55.7044
53.1647
51.1168
49.6251
48.6932
48.5599
49.4682
51.3729
56.7144
66.8046
50.1459
48.5333
46.839
45.2285
43.804
42.68
42.0117
41.9667
42.8887
44.1375
47.0988
51.4828
170.67
164.623
157.429
148.75
140.254
131.08
121.829
112.828
104.237
95.9686
88.3004
81.2988
103.118
106.12
108.195
108.98
108.599
106.939
104.225
100.578
95.7134
89.7059
83.6179
77.629
70.4244
72.7708
74.7859
76.316
77.4958
77.9502
77.5603
76.4682
74.6915
72.4118
69.5733
66.1599
53.4536
54.628
55.4865
56.0036
56.3511
56.4977
56.3378
55.9408
55.2844
54.3461
53.1086
51.6515
75.0213
69.6337
65.0458
61.2864
58.3354
56.2507
55.3888
55.9674
58.7066
67.5544
92.7258
185.406
71.8772
66.8088
62.4493
58.886
56.0869
54.1183
53.0244
53.1843
54.6378
58.9808
70.3081
97.58
62.2394
58.7598
55.7004
53.1591
51.11
49.6172
48.6838
48.5492
49.4553
51.3572
56.6929
66.7751
50.1437
48.5296
46.8342
45.2226
43.7971
42.672
42.0015
41.9555
42.876
44.1227
47.0818
51.465
43.0574
43.1397
43.102
42.9045
42.6937
42.4303
42.0853
41.6731
41.1661
40.5824
39.9752
39.3796
34.5378
34.4627
34.3468
34.1567
33.9215
33.6031
33.2505
32.9395
32.691
32.5198
32.3558
31.9393
28.0912
28.2529
28.3675
28.3811
28.232
27.8917
27.522
27.3033
27.2988
27.4694
27.7074
27.6735
23.3499
23.839
24.215
24.4049
24.3334
23.9294
23.4527
23.1445
23.1376
23.5935
24.7217
26.4542
38.6599
36.8216
35.0854
34.0554
33.466
33.4962
34.2319
35.5839
37.4865
39.3866
41.5301
42.8997
30.9994
27.9094
25.818
25.0252
24.9834
25.7051
27.1204
29.0319
31.1779
32.9306
34.2158
34.7629
26.9771
21.5533
19.1241
18.4678
18.7177
19.7172
21.311
23.2768
25.2467
26.7087
27.6541
28.0598
27.7656
17.1229
14.3347
13.7807
14.1454
15.1883
16.7067
18.4877
20.2128
21.507
22.3785
22.9312
43.0521
43.1334
43.094
42.8949
42.6823
42.4174
42.072
41.6605
41.1551
40.5738
39.9695
39.3771
34.5334
34.4546
34.3372
34.146
33.9098
33.591
33.2394
32.9308
32.6854
32.5181
32.3587
31.948
28.0871
28.2446
28.3579
28.3709
28.2213
27.8815
27.5139
27.2992
27.2985
27.4735
27.7172
27.6948
23.3455
23.8312
24.2065
24.3961
24.3244
23.9212
23.4469
23.1427
23.1412
23.6003
24.7356
26.4892
38.6603
36.8243
35.0915
34.0651
33.4792
33.512
34.2501
35.6034
37.5071
39.4081
41.5519
42.9218
31.0129
27.9242
25.8358
25.0457
25.006
25.7291
27.1452
29.057
31.2035
32.9568
34.2427
34.7898
27.0049
21.5777
19.1489
18.4936
18.7442
19.744
21.3378
23.3036
25.274
26.7368
27.6825
28.0887
27.8169
17.154
14.3623
13.8076
14.172
15.2146
16.7328
18.5138
20.2394
21.5342
22.4064
22.9593
43.0744
43.1564
43.1178
42.9195
42.7074
42.4422
42.0961
41.6836
41.1771
40.5945
39.9888
39.3943
34.5609
34.4823
34.3649
34.1734
33.9365
33.6167
33.2637
32.9532
32.706
32.5365
32.3744
31.9599
28.1161
28.2733
28.3861
28.3982
28.2473
27.906
27.5362
27.3186
27.3154
27.4877
27.7284
27.6994
23.3734
23.8586
24.233
24.4216
24.3486
23.9436
23.4667
23.1589
23.1536
23.6101
24.7429
26.4873
38.6756
36.8387
35.1049
34.0774
33.4906
33.5227
34.2603
35.6133
37.5166
39.4176
41.562
42.9319
31.0215
27.9324
25.8427
25.0516
25.0111
25.7338
27.1497
29.0613
31.2073
32.96
34.2453
34.792
27.0052
21.5786
19.149
18.4931
18.7435
19.7434
21.3374
23.3033
25.2729
26.7346
27.6798
28.0849
27.8068
17.1487
14.3573
13.8026
14.1673
15.2103
16.7289
18.5101
20.235
21.5289
22.4001
22.9524
43.0838
43.1643
43.1237
42.9234
42.7091
42.4419
42.0942
41.6802
41.1725
40.5891
39.9823
39.3868
34.5614
34.4815
34.3628
34.17
33.9315
33.6101
33.2558
32.9445
32.6965
32.5263
32.3628
31.9462
28.1111
28.2673
28.3793
28.3907
28.2385
27.8957
27.525
27.3064
27.3021
27.4733
27.7117
27.6789
23.3654
23.85
24.2239
24.412
24.3378
23.9313
23.4535
23.1447
23.1358
23.5919
24.7196
26.4557
38.6673
36.8298
35.0946
34.0655
33.477
33.5078
34.2444
35.5975
37.5019
39.4045
41.5502
42.9211
31.0067
27.918
25.8272
25.0346
24.9928
25.7145
27.1303
29.043
31.1918
32.9485
34.2373
34.7854
26.9834
21.5603
19.1311
18.4744
18.7238
19.723
21.317
23.2839
25.2574
26.7235
27.6723
28.0794
27.771
17.1276
14.339
13.7843
14.1483
15.1906
16.7089
18.4909
20.219
21.5165
22.3913
22.945
19.8052
20.602
21.1798
21.4957
21.4628
20.9397
20.1981
19.4557
18.8283
18.2875
18.0014
20.0607
17.0327
18.0618
18.8123
19.2082
19.1821
18.5045
17.3752
15.907
14.0118
11.226
6.63552
3.34893
14.7973
15.9556
16.833
17.2886
17.261
16.4444
14.9441
12.821
9.99639
6.38292
3.15135
2.44945
12.9323
14.1391
15.0967
15.6021
15.5851
14.689
12.9694
10.509
7.45032
4.30841
2.44056
2.42478
11.333
12.5324
13.5281
14.0743
14.0843
13.2019
11.4446
8.9605
6.1117
3.64387
2.31358
2.4297
9.93991
11.0934
12.0919
12.6724
12.7298
11.9366
10.2878
7.97958
5.48471
3.49915
2.35269
2.40746
8.72488
9.80746
10.7804
11.3889
11.5073
10.8497
9.40243
7.3597
5.21897
3.53774
2.48944
2.28572
7.68583
8.68636
9.61227
10.2437
10.4248
9.92277
8.72285
6.96203
5.13054
3.66421
2.64185
1.99131
6.85536
7.77854
8.65213
9.30291
9.54442
9.19157
8.23511
6.73929
5.15504
3.8341
2.7761
1.6146
6.34688
7.22342
8.07117
8.75077
9.05626
8.82806
8.05755
6.777
5.35935
4.08165
2.87155
1.15315
6.63203
7.58045
8.51548
9.31174
9.71172
9.5468
8.82296
7.62937
6.20646
4.69628
2.9529
0.668038
12.0702
14.0016
15.97
17.7586
18.8129
18.5306
17.1558
14.7113
11.4511
7.43286
3.5915
0.878137
41.0576
13.6544
10.7744
10.387
10.8058
11.7885
13.1398
14.6771
16.1742
17.3722
18.2953
19.056
22.4352
9.79589
8.06466
7.90263
8.35856
9.24696
10.419
11.7332
13.0302
14.1645
15.147
16.0657
15.025
7.14609
6.10154
6.09284
6.55649
7.34523
8.35418
9.47923
10.6147
11.6798
12.6866
13.7022
10.6445
5.33843
4.68741
4.77085
5.21762
5.91238
6.78112
7.74902
8.74871
9.73836
10.7335
11.7845
7.71672
4.06559
3.65174
3.78948
4.20952
4.81981
5.57006
6.40732
7.28986
8.19929
9.15378
10.191
5.61303
3.133
2.87306
3.04686
3.43873
3.97473
4.62507
5.35323
6.13356
6.96112
7.85509
8.84442
4.04638
2.42809
2.27456
2.47446
2.84138
3.31297
3.87918
4.51657
5.20849
5.95656
6.77969
7.70071
2.89929
1.88289
1.80443
2.02756
2.37612
2.79294
3.28944
3.85359
4.47217
5.14816
5.89923
6.74405
2.01354
1.42891
1.42825
1.68006
2.02057
2.39288
2.83501
3.34624
3.91144
4.5302
5.21869
5.99258
1.30823
1.04056
1.12863
1.44031
1.79066
2.13172
2.54232
3.03029
3.56997
4.15538
4.80781
5.53689
0.763291
0.730317
0.957374
1.37173
1.7493
2.08319
2.5103
3.05326
3.65997
4.29921
5.00447
5.77857
0.569512
0.832122
1.60539
2.28985
2.7622
3.22005
3.97151
5.05766
6.32571
7.62822
9.00118
10.458
19.8019
20.5956
21.1728
21.4885
21.4555
20.9331
20.1936
19.4544
18.8307
18.2926
18.0097
20.0741
17.0307
18.0569
18.807
19.2027
19.1763
18.499
17.371
15.9048
14.0113
11.226
6.6361
3.34883
14.7965
15.952
16.8292
17.2845
17.2566
16.4397
14.94
12.8178
9.99392
6.38111
3.15058
2.44907
12.9323
14.1368
15.0943
15.5993
15.5817
14.6851
12.9655
10.5056
7.44756
4.30687
2.43999
2.42469
11.3335
12.5312
13.5266
14.0724
14.0818
13.1987
11.4412
8.95737
6.10942
3.64284
2.31316
2.42977
9.94054
11.0928
12.091
12.6712
12.7279
11.934
10.2849
7.977
5.48304
3.4984
2.35236
2.40772
8.72532
9.80701
10.7796
11.388
11.5058
10.8475
9.39996
7.35757
5.2177
3.53719
2.48906
2.28627
7.68585
8.68577
9.61139
10.2428
10.4234
9.9208
8.72063
6.96014
5.12945
3.66368
2.64135
1.99174
6.85485
7.7777
8.65076
9.3017
9.54274
9.18959
8.23288
6.73739
5.15389
3.83349
2.77545
1.61489
6.34586
7.22205
8.06917
8.74896
9.05418
8.82573
8.05508
6.77479
5.35794
4.08072
2.87082
1.15328
6.63077
7.57842
8.51265
9.3091
9.70892
9.54377
8.81992
7.62649
6.20441
4.69477
2.95212
0.668042
12.0665
13.9971
15.9656
17.7541
18.8075
18.5246
17.1496
14.7054
11.4462
7.42959
3.59054
0.878017
41.1691
13.6886
10.8014
10.4126
10.8305
11.8127
13.1638
14.701
16.1984
17.3971
18.3207
19.0818
22.5122
9.82633
8.08886
7.9254
8.38041
9.26828
10.44
11.7542
13.0515
14.1862
15.1693
16.0883
15.083
7.1717
6.12234
6.11244
6.5753
7.36354
8.37218
9.49717
10.6328
11.6982
12.7054
13.7213
10.6889
5.35953
4.70494
4.7874
5.23358
5.92788
6.79628
7.76404
8.76376
9.75362
10.7491
11.8004
7.75055
4.08277
3.66637
3.80337
4.22301
4.83287
5.58273
6.41975
7.30219
8.21169
9.16635
10.2038
5.63855
3.14696
2.88518
3.05852
3.45014
3.98577
4.63567
5.36347
6.14357
6.97105
7.86509
8.85452
4.06531
2.43943
2.28455
2.48427
2.85112
3.32239
3.8881
4.52505
5.21661
5.96449
6.78754
7.70859
2.91321
1.89202
1.81264
2.03585
2.38457
2.80113
3.29708
3.8607
4.47884
5.15452
5.90542
6.75015
2.02336
1.43606
1.43497
1.68718
2.02807
2.40023
2.84175
3.35239
3.91707
4.53546
5.2237
5.99741
1.31475
1.04591
1.13414
1.44669
1.79778
2.1388
2.54871
3.03595
3.57506
4.16006
4.81218
5.54096
0.767177
0.734154
0.962226
1.37819
1.75688
2.09082
2.51714
3.05923
3.66535
4.30416
5.00905
5.78276
0.572197
0.836238
1.61385
2.30174
2.77593
3.23346
3.98382
5.06817
6.33586
7.63782
9.01
10.4663
19.8276
20.6204
21.1966
21.5115
21.4773
20.9531
20.211
19.468
18.8403
18.2995
18.0164
20.0877
17.0533
18.0786
18.8277
19.2228
19.1956
18.5167
17.3864
15.9169
14.0202
11.2329
6.64257
3.35442
14.8157
15.9706
16.8469
17.3018
17.2732
16.4552
14.9537
12.8291
10.0029
6.38818
3.15558
2.45371
12.9482
14.1523
15.109
15.6137
15.5957
14.6983
12.9775
10.5159
7.45594
4.31295
2.44386
2.42905
11.3463
12.5438
13.5385
14.0841
14.0932
13.2097
11.4515
8.96639
6.1167
3.64788
2.31649
2.43402
9.95069
11.1027
12.1005
12.6805
12.7371
11.9429
10.2935
7.98471
5.48907
3.50267
2.35544
2.41171
8.73321
9.8148
10.787
11.3953
11.5128
10.8548
9.40682
7.3642
5.22259
3.54079
2.49192
2.28971
7.69197
8.69187
9.61722
10.2486
10.4287
9.92674
8.72612
6.9659
5.1335
3.66676
2.64411
1.9945
6.85962
7.78265
8.65542
9.307
9.54621
9.19541
8.23654
6.74324
5.15702
3.83609
2.77843
1.61682
6.34994
7.22635
8.07372
8.75367
9.05761
8.83069
8.05882
6.77996
5.36108
4.08326
2.87334
1.15482
6.63509
7.58319
8.51811
9.31438
9.71313
9.54945
8.82408
7.63202
6.20801
4.69763
2.95475
0.6688
12.0762
14.0078
15.9778
17.7636
18.8196
18.5341
17.1609
14.7147
11.4539
7.43544
3.5937
0.878722
41.1408
13.679
10.7934
10.405
10.8234
11.8061
13.1577
14.6952
16.1923
17.3902
18.3131
19.0734
22.4864
9.81549
8.07974
7.91672
8.37221
9.26063
10.4329
11.7474
13.0446
14.1789
15.1613
16.0797
15.0605
7.16112
6.11317
6.10362
6.56689
7.3556
8.36475
9.49008
10.6258
11.691
12.6978
13.7132
10.6698
5.34987
4.69631
4.77898
5.22543
5.92012
6.789
7.75712
8.75703
9.74681
10.742
11.7929
7.73492
4.07429
3.65855
3.7956
4.21537
4.82553
5.57582
6.41323
7.29593
8.20546
9.15997
10.1971
5.62588
3.1397
2.87825
3.05146
3.4431
3.97893
4.6292
5.35741
6.13783
6.96543
7.85937
8.84859
4.05565
2.43337
2.27849
2.47792
2.84467
3.31605
3.88209
4.51942
5.21134
5.95938
6.78242
7.70329
2.90581
1.88697
1.8074
2.03013
2.37863
2.79523
3.29146
3.85543
4.47393
5.14983
5.90074
6.74536
2.01795
1.43192
1.43043
1.68195
2.02254
2.39466
2.83642
3.34734
3.91238
4.531
5.21928
5.99293
1.31096
1.04258
1.13015
1.44171
1.79237
2.13331
2.54337
3.03087
3.57032
4.15554
4.80772
5.53652
0.764799
0.731479
0.958322
1.37295
1.75111
2.08494
2.51131
3.05341
3.65984
4.29887
5.00383
5.77759
0.57067
0.833084
1.6067
2.29287
2.7664
3.22381
3.97381
5.05722
6.32489
7.6271
8.99945
10.4555
19.8187
20.6109
21.1866
21.501
21.4657
20.9399
20.1966
19.4525
18.8222
18.2787
17.9908
20.052
17.0443
18.0693
18.8178
19.2123
19.1839
18.5034
17.3718
15.9014
14.0034
11.216
6.62961
3.34764
14.8072
15.9618
16.8375
17.2913
17.2616
16.4424
14.9398
12.8147
9.98875
6.37667
3.14931
2.44905
12.9404
14.1443
15.1001
15.6018
15.5818
14.6864
12.9648
10.5032
7.44476
4.30532
2.43963
2.42468
11.3393
12.5365
13.5306
14.0751
14.083
13.1991
11.4402
8.95565
6.10791
3.6422
2.31296
2.42974
9.94447
11.0962
12.0934
12.6727
12.7284
11.9335
10.2837
7.97553
5.48201
3.49796
2.35224
2.4077
8.72764
9.80887
10.7806
11.3883
11.5053
10.8462
9.39834
7.35607
5.21674
3.53673
2.48889
2.28614
7.68689
8.68638
9.61128
10.242
10.4219
9.91888
8.71861
6.95846
5.12838
3.6631
2.6411
1.99166
6.85492
7.77738
8.64984
9.30017
9.54056
9.18714
8.23052
6.73547
5.15264
3.83276
2.77509
1.61479
6.34527
7.22113
8.06772
8.74693
9.05151
8.82289
8.05241
6.77263
5.35648
4.07981
2.87033
1.15322
6.62979
7.57723
8.51093
9.30679
9.70585
9.5405
8.81691
7.62392
6.20262
4.69361
2.95148
0.668006
12.0654
13.996
15.9635
17.7507
18.8022
18.5187
17.1439
14.7004
11.4426
7.42757
3.5897
0.877818
41.0666
13.6572
10.7764
10.3885
10.8064
11.7883
13.1393
14.6771
16.1758
17.3763
18.3019
19.0634
22.4377
9.7971
8.06528
7.9027
8.35771
9.24519
10.4166
11.7307
13.0283
14.1638
15.1478
16.0674
15.0259
7.14654
6.1015
6.09226
6.555
7.34273
8.35072
9.47511
10.6104
11.6755
12.6826
13.6986
10.645
5.33861
4.68718
4.77009
5.21603
5.90975
6.77734
7.74414
8.7429
9.73178
10.7262
11.7768
7.71703
4.06568
3.65157
3.78885
4.20816
4.81744
5.56645
6.40233
7.28345
8.19148
9.14439
10.1805
5.61349
3.1331
2.87304
3.0465
3.43776
3.97285
4.62194
5.34858
6.1272
6.95294
7.8448
8.83233
4.04672
2.42819
2.27471
2.47443
2.84086
3.31166
3.8767
4.51256
5.20262
5.94866
6.76936
7.68827
2.89969
1.88306
1.80475
2.02785
2.37605
2.79221
3.28767
3.85036
4.46707
5.14095
5.88954
6.73212
2.0139
1.42918
1.42873
1.68065
2.02088
2.39267
2.83391
3.34386
3.90721
4.5239
5.20997
5.9818
1.30863
1.04092
1.12927
1.44117
1.79131
2.13194
2.54184
3.0287
3.56658
4.14994
4.80008
5.52741
0.763642
0.730784
0.958228
1.37286
1.75017
2.08368
2.51026
3.05247
3.65726
4.29428
4.9971
5.77088
0.569673
0.832814
1.60702
2.2913
2.76301
3.22034
3.97146
5.05784
6.32309
7.6215
8.99015
10.4485
)
;

boundaryField
{
    rotor
    {
        lowReCorrection 0;
        type            epsilonWallFunction;
        value           nonuniform List<scalar> 
192
(
4.962
3.91133
4.76359
4.45474
4.08254
5.41859
21.7773
58.674
79.8288
90.7224
98.9906
102.909
104.614
103.457
101.493
98.0556
92.5493
85.3108
76.3053
65.4215
52.7324
39.0428
26.1757
34.9316
5.00636
3.94312
4.79808
4.49164
4.10558
5.41992
21.5898
58.4402
79.6273
90.5089
98.7805
102.7
104.413
103.262
101.313
97.8867
92.3984
85.1766
76.191
65.3275
52.6605
38.9915
26.1412
34.8837
5.00865
3.94381
4.79342
4.48156
4.10239
5.44476
21.8816
58.7612
79.8835
90.7846
99.0506
102.97
104.67
103.509
101.537
98.0909
92.5747
85.3278
76.3149
65.4241
52.7301
39.0373
26.1673
34.9189
5.00806
3.94462
4.80024
4.49428
4.10797
5.42128
21.5899
58.4428
79.6268
90.5011
98.7692
102.688
104.402
103.254
101.309
97.8866
92.4015
85.1826
76.199
65.3373
52.671
39.0013
26.1516
34.8993
4.962
13.1323
20.3553
27.2166
30.1912
29.2738
26.1567
23.2069
21.5718
21.9745
25.6641
116.298
34.8993
104.051
154.961
193.496
220.608
245.805
266.928
293.603
322.481
352.149
387.719
445.792
5.00636
13.1501
20.3665
27.1967
30.1455
29.2266
26.1146
23.1706
21.5447
21.9494
25.6406
116.297
34.9316
104.146
155.103
193.678
220.812
246.027
267.16
293.843
322.731
352.398
387.962
446.038
5.00865
13.1677
20.4373
27.2868
30.2617
29.3206
26.1861
23.2293
21.5809
21.9754
25.6582
116.291
34.8837
104.014
154.924
193.459
220.571
245.767
266.888
293.559
322.436
352.102
387.669
445.736
5.00806
13.1541
20.3666
27.1927
30.1353
29.2179
26.1073
23.1629
21.5402
21.9477
25.6437
116.328
34.9189
104.118
155.079
193.66
220.801
246.023
267.162
293.854
322.753
352.432
388.012
446.122
)
;
    }
    stator
    {
        lowReCorrection 0;
        type            epsilonWallFunction;
        value           nonuniform List<scalar> 
192
(
12.0702
14.0016
15.97
17.7586
18.8129
18.5306
17.1558
14.7113
11.4511
7.43286
3.5915
0.878137
0.569512
0.832122
1.60539
2.28985
2.7622
3.22005
3.97151
5.05766
6.32571
7.62822
9.00118
10.458
12.0665
13.9971
15.9656
17.7541
18.8075
18.5246
17.1496
14.7054
11.4462
7.42959
3.59054
0.878017
0.572197
0.836238
1.61385
2.30174
2.77593
3.23346
3.98382
5.06817
6.33586
7.63782
9.01
10.4663
12.0762
14.0078
15.9778
17.7636
18.8196
18.5341
17.1609
14.7147
11.4539
7.43544
3.5937
0.878722
0.57067
0.833084
1.6067
2.29287
2.7664
3.22381
3.97381
5.05722
6.32489
7.6271
8.99945
10.4555
12.0654
13.996
15.9635
17.7507
18.8022
18.5187
17.1439
14.7004
11.4426
7.42757
3.5897
0.877818
0.569673
0.832814
1.60702
2.2913
2.76301
3.22034
3.97146
5.05784
6.32309
7.6215
8.99015
10.4485
41.0576
22.4352
15.025
10.6445
7.71672
5.61303
4.04638
2.89929
2.01354
1.30823
0.763291
0.569512
20.0607
3.34893
2.44945
2.42478
2.4297
2.40746
2.28572
1.99131
1.6146
1.15315
0.668038
0.878137
41.1691
22.5122
15.083
10.6889
7.75055
5.63855
4.06531
2.91321
2.02336
1.31475
0.767177
0.572197
20.0741
3.34883
2.44907
2.42469
2.42977
2.40772
2.28627
1.99174
1.61489
1.15328
0.668042
0.878017
41.1408
22.4864
15.0605
10.6698
7.73492
5.62588
4.05565
2.90581
2.01795
1.31096
0.764799
0.57067
20.0877
3.35442
2.45371
2.42905
2.43402
2.41171
2.28971
1.9945
1.61682
1.15482
0.6688
0.878722
41.0666
22.4377
15.0259
10.645
7.71703
5.61349
4.04672
2.89969
2.0139
1.30863
0.763642
0.569673
20.052
3.34764
2.44905
2.42468
2.42974
2.4077
2.28614
1.99166
1.61479
1.15322
0.668006
0.877818
)
;
    }
    front
    {
        type            empty;
    }
    back
    {
        type            empty;
    }
}


// ************************************************************************* //
