/*--------------------------------*- C++ -*----------------------------------*\
| =========                 |                                                 |
| \\      /  F ield         | OpenFOAM: The Open Source CFD Toolbox           |
|  \\    /   O peration     | Version:  v1912                                 |
|   \\  /    A nd           | Website:  www.openfoam.com                      |
|    \\/     M anipulation  |                                                 |
\*---------------------------------------------------------------------------*/
FoamFile
{
    version     2.0;
    format      ascii;
    class       volScalarField;
    location    "250";
    object      k;
}
// * * * * * * * * * * * * * * * * * * * * * * * * * * * * * * * * * * * * * //

dimensions      [0 2 -2 0 0 0 0];


internalField   nonuniform List<scalar> 
3072
(
0.041888
0.0535404
0.0611277
0.0585229
0.0551124
0.0661717
0.165531
0.323619
0.398503
0.434158
0.460367
0.472556
0.0863361
0.139225
0.146558
0.13286
0.183784
0.264121
0.331065
0.455429
0.554734
0.658732
0.751665
0.829478
0.123498
0.25062
0.297089
0.287635
0.312241
0.417854
0.536267
0.67136
0.791199
0.899228
0.986801
1.05168
0.159317
0.311725
0.348967
0.361454
0.440189
0.567961
0.697845
0.824015
0.934792
1.03028
1.10633
1.16181
0.180469
0.366794
0.415983
0.452375
0.54907
0.676107
0.802821
0.919045
1.02001
1.10637
1.17564
1.22722
0.186177
0.387469
0.456664
0.518176
0.620961
0.744655
0.86461
0.971693
1.06499
1.1452
1.21099
1.26166
0.181213
0.382674
0.470322
0.556553
0.667393
0.787921
0.901524
1.00225
1.09008
1.16585
1.22905
1.27913
0.174976
0.373689
0.482964
0.593091
0.715555
0.835513
0.943535
1.03755
1.11871
1.18841
1.24691
1.29411
0.17375
0.377441
0.527045
0.675311
0.814352
0.933006
1.03053
1.11123
1.17882
1.23591
1.28363
1.32217
0.182913
0.419575
0.662642
0.864037
1.01514
1.12091
1.19577
1.25118
1.29347
1.32714
1.35421
1.37525
0.210478
0.558923
0.962612
1.20657
1.33498
1.40347
1.43838
1.45561
1.46056
1.46051
1.45766
1.45258
0.597236
0.981189
1.42229
1.61859
1.68506
1.69819
1.68811
1.663
1.63165
1.59777
1.56376
1.53039
0.477893
0.474429
0.468531
0.457972
0.440788
0.417571
0.387713
0.349952
0.303121
0.248142
0.190116
0.153807
0.88924
0.922062
0.926797
0.9115
0.882958
0.848449
0.809349
0.761555
0.695387
0.564184
0.407348
0.343392
1.08998
1.09997
1.0938
1.07189
1.04204
1.0095
0.976063
0.939048
0.888735
0.79876
0.597848
0.47904
1.19564
1.20722
1.20502
1.18992
1.16742
1.14289
1.11977
1.09738
1.06803
1.00782
0.836419
0.590342
1.26109
1.27621
1.27752
1.26768
1.25194
1.23553
1.22336
1.21512
1.20513
1.16971
1.03264
0.681253
1.29688
1.31664
1.32312
1.32033
1.31276
1.30636
1.3055
1.3135
1.32482
1.31794
1.22821
0.770857
1.31577
1.33927
1.35136
1.35525
1.35542
1.35769
1.36811
1.39152
1.42521
1.44502
1.39819
0.854264
1.32988
1.35463
1.36979
1.37811
1.3839
1.39312
1.41263
1.45014
1.50628
1.55495
1.53954
0.951752
1.35166
1.37262
1.38622
1.39483
1.40238
1.41437
1.43809
1.48522
1.56484
1.64789
1.6572
1.05646
1.39054
1.40059
1.40625
1.40962
1.41419
1.42404
1.44732
1.49787
1.59308
1.72048
1.77876
1.16524
1.44573
1.43777
1.42929
1.42163
1.41878
1.42395
1.44273
1.49055
1.59296
1.75697
1.90845
1.28945
1.49858
1.46986
1.44449
1.42402
1.41012
1.41052
1.42275
1.46217
1.55492
1.74781
2.01758
1.46579
0.0421909
0.0538645
0.0614304
0.0588394
0.0553163
0.0661878
0.1646
0.322767
0.397832
0.433475
0.459715
0.471919
0.086444
0.139444
0.146945
0.133169
0.183697
0.263772
0.330224
0.454428
0.553585
0.657474
0.750321
0.828125
0.123575
0.250651
0.297078
0.287614
0.311674
0.416954
0.535077
0.670033
0.789739
0.897674
0.985213
1.05009
0.15926
0.311589
0.348699
0.361013
0.439345
0.566858
0.696556
0.822602
0.933257
1.02865
1.10466
1.16011
0.180301
0.366479
0.415594
0.45174
0.548113
0.674933
0.801493
0.917597
1.01845
1.10472
1.17393
1.2255
0.185985
0.387061
0.456135
0.517439
0.61997
0.743463
0.863283
0.970243
1.06343
1.14356
1.2093
1.25993
0.181023
0.382236
0.469713
0.555746
0.666384
0.786758
0.900235
1.00085
1.08858
1.16428
1.22743
1.27747
0.174793
0.373264
0.482346
0.592301
0.714621
0.834459
0.942379
1.0363
1.11737
1.18699
1.24544
1.2926
0.173602
0.377052
0.526472
0.674616
0.813589
0.932177
1.02962
1.11024
1.17775
1.23476
1.28241
1.3209
0.182771
0.419241
0.662174
0.86355
1.01465
1.1204
1.19519
1.25055
1.29275
1.32633
1.35333
1.3743
0.210351
0.558611
0.962327
1.20631
1.33477
1.40327
1.43814
1.45535
1.46021
1.46007
1.45712
1.45196
0.597266
0.981034
1.42215
1.6185
1.68503
1.69817
1.68809
1.66293
1.63153
1.59758
1.56349
1.53004
0.477281
0.473832
0.467974
0.457446
0.440308
0.417134
0.387327
0.349619
0.302847
0.247926
0.189948
0.153668
0.887878
0.920754
0.925546
0.910389
0.881934
0.847505
0.808491
0.760783
0.694715
0.563658
0.406993
0.343107
1.08844
1.09848
1.09241
1.07059
1.04083
1.00838
0.975026
0.938096
0.887874
0.798018
0.597311
0.478677
1.19398
1.20564
1.20351
1.1885
1.16609
1.14164
1.11861
1.0963
1.06703
1.00694
0.83572
0.589901
1.25938
1.27456
1.27593
1.26617
1.25051
1.23418
1.22209
1.21393
1.20401
1.1687
1.0318
0.680763
1.29517
1.31497
1.3215
1.31877
1.31128
1.30494
1.30415
1.31222
1.32361
1.31683
1.22726
0.770322
1.31411
1.33764
1.34977
1.35371
1.35393
1.35625
1.36673
1.39019
1.42395
1.44384
1.39718
0.853693
1.32836
1.35312
1.3683
1.37666
1.38249
1.39173
1.41127
1.44882
1.505
1.55375
1.53848
0.951149
1.35036
1.37131
1.38492
1.39355
1.40111
1.41313
1.43687
1.48399
1.56362
1.64669
1.65614
1.05583
1.38954
1.39955
1.40521
1.40858
1.41315
1.42297
1.44623
1.49675
1.59193
1.71934
1.77771
1.1646
1.44504
1.43704
1.42852
1.42084
1.41796
1.42311
1.44186
1.48963
1.59197
1.75593
1.90745
1.28882
1.49817
1.4694
1.44397
1.42346
1.40953
1.4099
1.42211
1.46147
1.55414
1.74694
2.01667
1.46514
0.0421996
0.0538639
0.0613902
0.0587532
0.0552826
0.0663829
0.166101
0.32396
0.398687
0.434356
0.46055
0.472738
0.086509
0.139398
0.146904
0.133159
0.184109
0.264165
0.331421
0.455819
0.555174
0.659206
0.752161
0.829962
0.123848
0.251219
0.297434
0.287712
0.312497
0.418339
0.536859
0.671958
0.791812
0.899843
0.987404
1.05227
0.159615
0.312179
0.349364
0.361845
0.4408
0.568635
0.698499
0.824656
0.935422
1.03091
1.10696
1.16243
0.18077
0.367244
0.41645
0.452927
0.549714
0.676753
0.803439
0.919626
1.02058
1.10694
1.17621
1.22781
0.186388
0.387778
0.457059
0.518677
0.621506
0.745191
0.865112
0.972174
1.06547
1.1457
1.21151
1.26219
0.181354
0.382912
0.470627
0.556948
0.667815
0.788331
0.901918
1.00264
1.09049
1.16629
1.22951
1.27961
0.175089
0.373827
0.483208
0.593387
0.71587
0.835826
0.943867
1.0379
1.11908
1.18881
1.24734
1.29456
0.173796
0.377522
0.527175
0.675453
0.81451
0.933213
1.03079
1.11154
1.17918
1.2363
1.28405
1.32261
0.182913
0.419519
0.662551
0.863936
1.01511
1.121
1.19596
1.25146
1.29381
1.32752
1.35463
1.37569
0.210443
0.558671
0.96225
1.20623
1.33475
1.4034
1.43848
1.45579
1.46083
1.46086
1.45804
1.45299
0.597235
0.980919
1.4219
1.61816
1.68473
1.69799
1.68812
1.66311
1.63185
1.59804
1.56407
1.53073
0.478061
0.474584
0.46866
0.458077
0.440864
0.417623
0.387743
0.34996
0.303111
0.248118
0.190075
0.153771
0.889701
0.922485
0.927188
0.911811
0.88322
0.848656
0.809506
0.761662
0.695446
0.564201
0.407315
0.343331
1.09054
1.10051
1.09429
1.07232
1.04241
1.00981
0.976305
0.939224
0.888846
0.798812
0.597855
0.478991
1.19624
1.2078
1.20557
1.19042
1.16787
1.14328
1.12009
1.09763
1.0682
1.00793
0.836454
0.590305
1.26167
1.27679
1.27808
1.26822
1.25243
1.23597
1.22374
1.21543
1.20536
1.16987
1.0327
0.681231
1.29742
1.31719
1.32366
1.32086
1.31327
1.30683
1.30592
1.31386
1.32511
1.31814
1.2283
0.77085
1.31626
1.33978
1.35188
1.35576
1.35591
1.35816
1.36855
1.39192
1.42554
1.44527
1.39832
0.854272
1.33035
1.35511
1.37028
1.3786
1.38439
1.39359
1.41308
1.45056
1.50665
1.55524
1.53971
0.951779
1.35211
1.37308
1.38668
1.3953
1.40285
1.41484
1.43855
1.48567
1.56526
1.64823
1.6574
1.05651
1.39099
1.40104
1.40671
1.41008
1.41465
1.4245
1.44778
1.49834
1.59354
1.72087
1.77899
1.16532
1.44615
1.4382
1.42972
1.42207
1.41923
1.4244
1.4432
1.49104
1.59347
1.75743
1.90872
1.28957
1.49895
1.47026
1.4449
1.42444
1.41056
1.41097
1.42324
1.46269
1.55547
1.74837
2.0179
1.46598
0.0422003
0.0538779
0.0614476
0.0588608
0.055337
0.0661993
0.164604
0.322779
0.397832
0.433453
0.459685
0.471886
0.086461
0.139481
0.14698
0.133221
0.183774
0.263767
0.330189
0.454374
0.553502
0.657377
0.750219
0.828028
0.123576
0.25065
0.297127
0.287661
0.311576
0.41682
0.534936
0.669885
0.789572
0.897494
0.985024
1.04989
0.159247
0.311569
0.348635
0.360884
0.439135
0.566655
0.69636
0.822395
0.933037
1.02842
1.10441
1.15985
0.180264
0.366415
0.415486
0.45154
0.547884
0.674709
0.801266
0.917363
1.0182
1.10446
1.17366
1.22521
0.185951
0.386999
0.456019
0.517237
0.619742
0.743232
0.863046
0.969995
1.06317
1.14328
1.20901
1.25964
0.180991
0.382172
0.469593
0.555551
0.666155
0.786519
0.899987
1.00059
1.08831
1.16399
1.22713
1.27717
0.174754
0.373201
0.482226
0.592118
0.714403
0.834219
0.942125
1.03603
1.11709
1.1867
1.24514
1.29231
0.173576
0.376998
0.526375
0.674481
0.813418
0.931974
1.02939
1.10999
1.17748
1.23448
1.28213
1.32062
0.182759
0.419237
0.662181
0.863557
1.01462
1.12032
1.19506
1.25037
1.29255
1.3261
1.35308
1.37405
0.210365
0.558719
0.962501
1.20649
1.3349
1.40334
1.43814
1.45531
1.46012
1.45993
1.45695
1.45178
0.597365
0.981265
1.42239
1.61874
1.68525
1.69836
1.68819
1.66299
1.63155
1.59755
1.56342
1.52994
0.477253
0.473813
0.467968
0.45745
0.440323
0.417158
0.387357
0.349656
0.302889
0.247969
0.19
0.153715
0.88779
0.920674
0.925477
0.910336
0.881897
0.847486
0.808491
0.760801
0.694755
0.563713
0.407063
0.343188
1.08824
1.09829
1.09224
1.07044
1.04071
1.00829
0.974972
0.938077
0.88789
0.798065
0.597373
0.478754
1.19372
1.20539
1.20328
1.18829
1.1659
1.14149
1.11849
1.09623
1.06701
1.00696
0.835784
0.58998
1.25909
1.27428
1.27566
1.26592
1.25028
1.23399
1.22194
1.21382
1.20396
1.16872
1.03187
0.680841
1.29487
1.31467
1.32121
1.3185
1.31104
1.30473
1.30398
1.3121
1.32355
1.31684
1.22734
0.770404
1.31381
1.33735
1.34949
1.35344
1.35369
1.35604
1.36656
1.39008
1.42389
1.44386
1.39726
0.853781
1.32807
1.35284
1.36803
1.37641
1.38226
1.39154
1.41111
1.44871
1.50495
1.55377
1.53857
0.951246
1.35009
1.37105
1.38467
1.39332
1.40091
1.41295
1.43672
1.4839
1.56358
1.64672
1.65625
1.05593
1.3893
1.39932
1.40499
1.40838
1.41297
1.42282
1.44611
1.49667
1.5919
1.71937
1.77783
1.1647
1.44486
1.43686
1.42835
1.42069
1.41783
1.423
1.44177
1.48956
1.59195
1.75596
1.90758
1.28893
1.49806
1.46929
1.44387
1.42338
1.40946
1.40985
1.42207
1.46145
1.55413
1.74696
2.01681
1.46527
1.76893
1.77799
1.79904
1.82232
1.82747
1.81874
1.79493
1.75736
1.71342
1.66445
1.61354
1.56257
1.74183
1.71027
1.70347
1.70962
1.71837
1.71736
1.70574
1.68553
1.65538
1.61352
1.5656
1.515
1.60815
1.58689
1.56792
1.55426
1.54694
1.53787
1.52485
1.50765
1.48674
1.46067
1.4291
1.39209
1.4525
1.43556
1.41501
1.39159
1.36784
1.34514
1.32398
1.30491
1.28666
1.26806
1.2494
1.23122
1.51372
1.4705
1.43331
1.40408
1.38327
1.37911
1.38643
1.41662
1.48961
1.65409
1.97165
1.88947
1.46436
1.41953
1.38179
1.35335
1.33395
1.32973
1.33591
1.36054
1.41483
1.52143
1.77106
1.79634
1.35334
1.32147
1.29554
1.27731
1.26666
1.26521
1.27438
1.29544
1.33876
1.40053
1.55804
1.62605
1.21596
1.20407
1.19324
1.18614
1.18352
1.18515
1.19731
1.21838
1.25859
1.30079
1.39468
1.45722
1.76926
1.77816
1.79914
1.82229
1.82742
1.81869
1.79488
1.7573
1.71333
1.66433
1.61337
1.56235
1.74211
1.71046
1.70356
1.70961
1.71828
1.71724
1.70559
1.68537
1.65522
1.61334
1.5654
1.51478
1.60832
1.58704
1.56802
1.55425
1.54686
1.53773
1.52466
1.50742
1.48649
1.4604
1.42883
1.39183
1.45259
1.43563
1.41503
1.39156
1.36774
1.34497
1.32376
1.30462
1.28636
1.26778
1.24913
1.23099
1.51346
1.47019
1.43297
1.4037
1.38286
1.37868
1.38599
1.41615
1.48908
1.65347
1.97096
1.88881
1.46412
1.41928
1.38153
1.35308
1.33368
1.32948
1.33566
1.36029
1.41457
1.52114
1.7707
1.79601
1.35308
1.32124
1.29534
1.27715
1.26653
1.26512
1.27435
1.29545
1.3388
1.40059
1.55805
1.6261
1.21578
1.20397
1.19321
1.18618
1.18361
1.18533
1.19757
1.21871
1.25896
1.30119
1.39508
1.45762
1.76884
1.77787
1.79889
1.82209
1.82727
1.81859
1.79488
1.7574
1.71354
1.66464
1.61378
1.56285
1.74186
1.71036
1.70358
1.7097
1.71843
1.71741
1.70581
1.68562
1.65551
1.6137
1.56582
1.51526
1.60841
1.58719
1.56825
1.55458
1.54724
1.53814
1.5251
1.50789
1.48698
1.46092
1.42937
1.39239
1.45301
1.43607
1.41551
1.39207
1.36829
1.34555
1.32437
1.30525
1.287
1.26841
1.24977
1.23162
1.51404
1.47085
1.43369
1.40449
1.38371
1.37959
1.38694
1.41717
1.49021
1.65475
1.97213
1.88986
1.46466
1.41987
1.38218
1.35378
1.33442
1.33025
1.33647
1.36115
1.41549
1.52214
1.77175
1.79693
1.35367
1.32186
1.29598
1.27781
1.2672
1.26579
1.27501
1.29612
1.33949
1.40132
1.55887
1.62682
1.21639
1.20456
1.19378
1.18672
1.18413
1.18583
1.19804
1.21916
1.25941
1.30165
1.39559
1.45809
1.76953
1.77843
1.79943
1.82262
1.82776
1.81901
1.79514
1.7575
1.71349
1.66443
1.61343
1.56237
1.74265
1.71098
1.70408
1.71014
1.7188
1.71772
1.70602
1.68577
1.65555
1.61358
1.56561
1.51494
1.60907
1.58775
1.5687
1.5549
1.5475
1.53834
1.52522
1.50794
1.48698
1.46085
1.42922
1.39214
1.45342
1.43643
1.4158
1.39228
1.36842
1.34562
1.32437
1.30516
1.28688
1.26825
1.24958
1.23138
1.51346
1.47018
1.43296
1.4037
1.38287
1.3787
1.38601
1.41617
1.4891
1.65347
1.97107
1.88895
1.46426
1.4194
1.38165
1.35319
1.33379
1.32957
1.33574
1.36034
1.41459
1.52114
1.77071
1.796
1.35336
1.32149
1.29556
1.27734
1.26669
1.26524
1.27442
1.29547
1.33876
1.4005
1.55792
1.62591
1.2161
1.2042
1.19339
1.1863
1.18368
1.18533
1.19749
1.21855
1.25872
1.30088
1.39472
1.45723
1.28851
1.26108
1.23204
1.20184
1.17318
1.14729
1.12519
1.10711
1.09235
1.08131
1.07586
1.07666
1.14371
1.11862
1.09205
1.06378
1.03522
1.0078
0.98369
0.964606
0.950877
0.942951
0.941147
0.94328
1.02481
1.00846
0.98912
0.965352
0.937185
0.906507
0.877123
0.852464
0.833404
0.819113
0.808118
0.800719
0.929015
0.923006
0.912021
0.893093
0.864702
0.829043
0.791106
0.755085
0.721753
0.688322
0.653024
0.624441
1.08223
1.07837
1.06433
1.06259
1.06945
1.08724
1.11776
1.15781
1.20697
1.25358
1.29891
1.31439
0.951839
0.945757
0.922855
0.920965
0.93428
0.962813
1.00464
1.0544
1.10606
1.14522
1.17002
1.17093
0.810936
0.816785
0.791698
0.790905
0.808791
0.843001
0.889545
0.942132
0.991353
1.02462
1.04265
1.04256
0.636287
0.686335
0.67328
0.67677
0.698404
0.734989
0.782083
0.833397
0.879804
0.911437
0.929352
0.934347
1.28852
1.261
1.2319
1.20165
1.17295
1.14702
1.12491
1.10684
1.09213
1.08115
1.07579
1.07666
1.14366
1.11844
1.09182
1.0635
1.03492
1.0075
0.983415
0.964393
0.950752
0.942932
0.941258
0.9435
1.02473
1.00823
0.988835
0.965041
0.936862
0.906204
0.876877
0.852307
0.833355
0.819184
0.808334
0.801125
0.928932
0.922762
0.911733
0.892784
0.864387
0.828756
0.790887
0.754961
0.721734
0.688416
0.653255
0.62485
1.08233
1.07861
1.06467
1.06303
1.06997
1.08782
1.11837
1.15845
1.20762
1.25425
1.29957
1.31505
0.952202
0.946316
0.923544
0.921737
0.935105
0.963662
1.00549
1.05525
1.1069
1.14606
1.17086
1.17177
0.811541
0.817573
0.792628
0.791888
0.809802
0.844006
0.890529
0.943091
0.992298
1.02556
1.04358
1.04349
0.637071
0.687275
0.674333
0.677863
0.699499
0.73606
0.783119
0.834399
0.880785
0.912407
0.93032
0.935307
1.28919
1.2617
1.2326
1.20236
1.17367
1.14774
1.12562
1.10752
1.09278
1.08177
1.07636
1.07718
1.14451
1.11929
1.09265
1.06432
1.03572
1.00827
0.984137
0.965056
0.951347
0.94345
0.941688
0.943858
1.02566
1.00915
0.989729
0.965901
0.937685
0.906975
0.877576
0.852914
0.833861
0.819585
0.808631
0.801305
0.929883
0.923692
0.912627
0.893637
0.865198
0.829506
0.791548
0.755508
0.722157
0.688715
0.653447
0.624957
1.08279
1.07899
1.06501
1.06332
1.07022
1.08805
1.11859
1.15866
1.20783
1.25445
1.29978
1.31524
0.952468
0.946477
0.923633
0.921781
0.93512
0.963665
1.00549
1.05526
1.1069
1.14605
1.17084
1.17172
0.811603
0.817532
0.792496
0.791719
0.809613
0.843821
0.890357
0.942934
0.992132
1.02538
1.04339
1.04328
0.636961
0.687067
0.674036
0.677529
0.699157
0.735732
0.782816
0.834118
0.880501
0.912111
0.930009
0.934982
1.28932
1.26177
1.23262
1.20233
1.17358
1.1476
1.12543
1.10729
1.09253
1.08149
1.07606
1.07685
1.14441
1.11915
1.09248
1.06412
1.03548
1.00799
0.983838
0.964743
0.951026
0.943112
0.941315
0.943446
1.02541
1.00887
0.989439
0.965595
0.937354
0.906622
0.877213
0.852552
0.833496
0.819204
0.808208
0.800826
0.929534
0.923333
0.912267
0.893269
0.864812
0.829106
0.791146
0.755113
0.721769
0.688305
0.652995
0.624433
1.08242
1.07857
1.06455
1.06282
1.06968
1.08745
1.11794
1.15796
1.20709
1.2537
1.29901
1.31451
0.952016
0.945969
0.923089
0.921195
0.934489
0.962989
1.00478
1.05451
1.10615
1.14532
1.17016
1.1711
0.811074
0.816956
0.791895
0.79109
0.808946
0.843116
0.889617
0.942169
0.991384
1.02468
1.04275
1.04272
0.636394
0.686453
0.67342
0.676897
0.698498
0.73504
0.782089
0.833365
0.879761
0.911415
0.929379
0.934438
0.850631
0.854119
0.851229
0.837194
0.808664
0.76744
0.718372
0.665008
0.606101
0.529953
0.405519
0.237185
0.784791
0.795986
0.799899
0.79101
0.763196
0.717273
0.656833
0.584359
0.496828
0.380846
0.205283
0.073756
0.726439
0.744402
0.753704
0.749998
0.724249
0.675769
0.606597
0.519244
0.413025
0.286662
0.146947
0.0612368
0.671935
0.695847
0.709836
0.710976
0.688682
0.640354
0.567122
0.472402
0.360685
0.244262
0.140549
0.0621116
0.619227
0.647764
0.66594
0.671446
0.653778
0.608399
0.535846
0.440806
0.332639
0.229503
0.146286
0.0634809
0.566858
0.598389
0.620275
0.62971
0.61724
0.576936
0.508855
0.418473
0.317894
0.225179
0.151241
0.0643532
0.513728
0.54666
0.571303
0.584231
0.57693
0.543022
0.482059
0.399271
0.307621
0.223205
0.152892
0.0633282
0.458739
0.491574
0.517715
0.533479
0.530714
0.503848
0.451736
0.37804
0.29568
0.218283
0.1502
0.058837
0.400398
0.4317
0.457912
0.47547
0.476385
0.456152
0.414024
0.350425
0.277568
0.206745
0.140124
0.0520735
0.33566
0.363856
0.388561
0.406335
0.409887
0.395223
0.363326
0.31177
0.248748
0.184736
0.119963
0.0423304
0.254835
0.27783
0.298633
0.314518
0.319409
0.309665
0.286932
0.251286
0.200796
0.144824
0.0845154
0.02991
0.111528
0.123079
0.134267
0.144006
0.149485
0.147898
0.140433
0.12671
0.107183
0.0803253
0.0494375
0.0193126
0.383877
0.552846
0.565959
0.57828
0.603199
0.640385
0.686034
0.734492
0.778767
0.811296
0.832488
0.844625
0.262608
0.44046
0.473403
0.494253
0.521769
0.558627
0.602114
0.647592
0.689811
0.723867
0.749661
0.769306
0.205595
0.356929
0.397176
0.423154
0.452198
0.488129
0.529266
0.572001
0.61247
0.647622
0.677359
0.703192
0.166962
0.293115
0.334636
0.362886
0.392379
0.426924
0.465666
0.50586
0.544732
0.580397
0.612866
0.643154
0.137578
0.242408
0.282351
0.311205
0.34028
0.373047
0.409347
0.447101
0.484308
0.519834
0.553803
0.58689
0.113537
0.200079
0.237579
0.266103
0.294111
0.32474
0.358504
0.393821
0.429183
0.463919
0.498244
0.532628
0.093078
0.163007
0.198225
0.225927
0.252359
0.280493
0.311579
0.344388
0.377664
0.410994
0.444654
0.479013
0.0759532
0.129209
0.162728
0.189313
0.213701
0.238965
0.267178
0.297355
0.328274
0.359616
0.391687
0.424833
0.0606709
0.0983218
0.129955
0.155016
0.176788
0.198731
0.22382
0.251182
0.279425
0.308191
0.337788
0.36859
0.0463347
0.0702658
0.098967
0.121359
0.139558
0.157526
0.17911
0.20337
0.228523
0.254034
0.280163
0.307379
0.0329227
0.0450861
0.0678897
0.0846028
0.0972618
0.109926
0.127146
0.147549
0.168623
0.189643
0.210629
0.23229
0.0145878
0.0187796
0.0290872
0.0368667
0.0417961
0.0463192
0.0532842
0.0625752
0.0726132
0.0822245
0.0917656
0.101354
0.85056
0.853901
0.850964
0.83691
0.808375
0.767177
0.718172
0.66489
0.606063
0.529988
0.405625
0.23727
0.784726
0.795801
0.799677
0.790766
0.762943
0.717037
0.656644
0.584231
0.49675
0.380801
0.205268
0.073751
0.726398
0.744255
0.753526
0.7498
0.724037
0.675563
0.60642
0.519107
0.412923
0.286589
0.146909
0.0612301
0.67191
0.695739
0.709702
0.710824
0.688512
0.640179
0.566963
0.47227
0.360585
0.244199
0.140515
0.062109
0.619216
0.647688
0.665842
0.671332
0.653645
0.608254
0.535708
0.440689
0.332555
0.229456
0.146269
0.0634806
0.566852
0.598334
0.620204
0.629625
0.617135
0.576817
0.508737
0.418373
0.317825
0.225143
0.15123
0.0643557
0.513718
0.546615
0.571244
0.584163
0.576843
0.542921
0.481956
0.399183
0.307562
0.223175
0.152884
0.0633347
0.458719
0.491529
0.517658
0.533418
0.530636
0.503758
0.451641
0.377958
0.295626
0.218254
0.150191
0.0588419
0.400364
0.431653
0.45785
0.475409
0.476308
0.456067
0.413933
0.350345
0.277513
0.206716
0.140113
0.0520765
0.33562
0.363803
0.388492
0.40627
0.409811
0.39514
0.363239
0.311689
0.248692
0.184703
0.119953
0.0423312
0.254799
0.277779
0.298566
0.314454
0.319338
0.309589
0.286855
0.251213
0.200739
0.144789
0.0845081
0.0299091
0.111506
0.123053
0.134242
0.14398
0.149455
0.147865
0.140398
0.126676
0.107152
0.080302
0.0494277
0.01931
0.384569
0.55384
0.567043
0.579397
0.604305
0.641458
0.687065
0.735485
0.779732
0.812246
0.833427
0.845558
0.263209
0.441423
0.474457
0.495336
0.522837
0.559658
0.6031
0.648536
0.690724
0.724757
0.75054
0.770173
0.206123
0.357817
0.398159
0.424168
0.453199
0.489092
0.530183
0.572872
0.613306
0.648431
0.678151
0.703974
0.167426
0.29391
0.335529
0.363815
0.393298
0.427806
0.4665
0.506647
0.545479
0.581114
0.613563
0.643837
0.137979
0.243106
0.283149
0.312041
0.341112
0.373843
0.410094
0.447799
0.484964
0.520457
0.554402
0.587474
0.113881
0.200683
0.23828
0.266847
0.294855
0.32545
0.359166
0.394433
0.429749
0.464449
0.49875
0.533116
0.093368
0.163518
0.198831
0.226579
0.253017
0.281121
0.312157
0.344916
0.378146
0.41144
0.445073
0.479413
0.0761962
0.129628
0.16324
0.189876
0.214275
0.239511
0.267676
0.297804
0.328679
0.359985
0.392029
0.425155
0.0608683
0.0986523
0.130375
0.155491
0.177278
0.199197
0.224239
0.251556
0.279759
0.308492
0.338062
0.368845
0.0464891
0.0705112
0.0992967
0.121744
0.139961
0.157907
0.17945
0.203669
0.228789
0.254271
0.280377
0.307573
0.0330349
0.0452504
0.0681243
0.0848842
0.097561
0.110205
0.12739
0.147763
0.168814
0.189814
0.210783
0.232426
0.0146338
0.0188418
0.0291893
0.0369936
0.0419334
0.0464465
0.0533935
0.0626621
0.0726916
0.0822946
0.0918272
0.101409
0.851477
0.854797
0.851824
0.837728
0.809151
0.767893
0.718796
0.665394
0.606437
0.530239
0.405773
0.237402
0.785575
0.796631
0.800478
0.791528
0.763668
0.717709
0.657234
0.584713
0.497118
0.381071
0.205464
0.0738382
0.727161
0.744998
0.75425
0.750491
0.724698
0.676181
0.606973
0.519572
0.413297
0.286881
0.147112
0.0613086
0.67258
0.696388
0.710336
0.711434
0.689097
0.640733
0.567468
0.472707
0.360945
0.244476
0.14071
0.0621846
0.619788
0.648242
0.666383
0.671856
0.65415
0.608737
0.536158
0.441084
0.332883
0.229705
0.146443
0.0635559
0.56733
0.598797
0.620654
0.630063
0.617559
0.577227
0.509125
0.418722
0.318112
0.225363
0.151392
0.0644281
0.514107
0.546994
0.571611
0.584524
0.577186
0.543266
0.482278
0.399489
0.307806
0.223368
0.153037
0.0633997
0.45903
0.491833
0.517953
0.53371
0.530907
0.504043
0.451905
0.378223
0.295831
0.21842
0.150329
0.0588971
0.400607
0.431894
0.458081
0.475654
0.476501
0.456321
0.414123
0.35059
0.277672
0.206851
0.140243
0.0521184
0.335806
0.363988
0.38868
0.406457
0.409967
0.395329
0.363404
0.311876
0.248828
0.184814
0.120049
0.0423704
0.25493
0.277913
0.29871
0.31459
0.319458
0.309726
0.28698
0.251344
0.200853
0.144872
0.0845735
0.0299335
0.111568
0.123118
0.134312
0.144033
0.149522
0.147918
0.140462
0.126731
0.107202
0.0803442
0.0494573
0.0193206
0.38439
0.55351
0.566636
0.578953
0.60386
0.641033
0.686671
0.73512
0.779375
0.811884
0.833054
0.845172
0.263004
0.441026
0.473984
0.494829
0.522331
0.559176
0.602653
0.648122
0.690329
0.724366
0.750142
0.769767
0.205916
0.357398
0.39766
0.423635
0.452667
0.488585
0.529712
0.572438
0.612897
0.648034
0.677755
0.703572
0.167224
0.293496
0.335033
0.363283
0.392765
0.427296
0.466027
0.506213
0.545075
0.580729
0.613183
0.643455
0.137792
0.242714
0.282673
0.311528
0.340595
0.373347
0.409634
0.447379
0.484577
0.520092
0.554047
0.58712
0.113709
0.200321
0.237836
0.266365
0.294367
0.32498
0.358729
0.394035
0.429387
0.464112
0.498424
0.532793
0.0932193
0.16319
0.198426
0.226136
0.252565
0.280684
0.311751
0.344547
0.377813
0.411131
0.444779
0.479123
0.0760661
0.129342
0.16288
0.189477
0.213867
0.239115
0.267307
0.297469
0.328378
0.359708
0.391766
0.424898
0.0607589
0.0984117
0.130063
0.155142
0.176921
0.198848
0.223913
0.251259
0.279492
0.308248
0.337832
0.36862
0.0463987
0.0703208
0.0990361
0.121453
0.139662
0.157616
0.179175
0.203417
0.228561
0.254063
0.280182
0.307385
0.0329656
0.0451169
0.0679268
0.084668
0.0973406
0.10999
0.127183
0.14757
0.168638
0.189653
0.210631
0.232282
0.0146073
0.0187941
0.0291032
0.0368991
0.0418381
0.0463548
0.0533048
0.0625729
0.0726084
0.0822179
0.0917556
0.10134
0.851079
0.854397
0.851427
0.837327
0.808736
0.767468
0.718371
0.664979
0.606035
0.529831
0.405382
0.237105
0.785161
0.796217
0.800068
0.791116
0.763243
0.717275
0.656799
0.58429
0.496712
0.380692
0.205187
0.0737355
0.726755
0.744591
0.753844
0.750083
0.724276
0.67575
0.606542
0.519157
0.412908
0.28655
0.146905
0.0612306
0.672194
0.696
0.709947
0.711042
0.688691
0.640317
0.567052
0.472311
0.36059
0.244196
0.140524
0.0621098
0.61943
0.64788
0.666017
0.671485
0.653764
0.608342
0.535763
0.440716
0.332564
0.22946
0.146276
0.0634812
0.567003
0.598465
0.620316
0.629717
0.617199
0.576857
0.508758
0.418381
0.317827
0.225145
0.151234
0.0643563
0.513813
0.546691
0.571301
0.584203
0.576857
0.542918
0.481943
0.399169
0.307553
0.22317
0.152885
0.0633336
0.458768
0.491561
0.517672
0.533416
0.53061
0.503722
0.451602
0.377925
0.295604
0.218242
0.150189
0.0588411
0.40038
0.431652
0.457833
0.475376
0.476254
0.456006
0.413874
0.350296
0.277481
0.206697
0.140107
0.052075
0.335614
0.363784
0.388459
0.40622
0.409742
0.395067
0.36317
0.311633
0.248653
0.18468
0.119945
0.0423295
0.254782
0.277755
0.29853
0.314405
0.319272
0.309519
0.286791
0.251159
0.200701
0.144766
0.0844995
0.0299066
0.111502
0.123048
0.134232
0.143963
0.149429
0.147835
0.140368
0.126648
0.107131
0.0802878
0.0494203
0.0193074
0.383934
0.552918
0.566047
0.578356
0.603242
0.640385
0.685985
0.734401
0.778648
0.811181
0.832413
0.844616
0.262631
0.440503
0.473454
0.494293
0.521778
0.558592
0.602028
0.647454
0.689631
0.723662
0.749467
0.769183
0.205605
0.356958
0.397208
0.423174
0.452189
0.488077
0.529159
0.571834
0.612246
0.647354
0.677072
0.702943
0.166968
0.29314
0.334663
0.362901
0.392367
0.42687
0.465555
0.505681
0.544484
0.580087
0.612509
0.642798
0.137582
0.242433
0.28238
0.311223
0.340274
0.373
0.409243
0.446925
0.484054
0.519504
0.553403
0.586461
0.113544
0.200109
0.237613
0.266129
0.294116
0.324707
0.358416
0.39366
0.428938
0.463589
0.497829
0.532161
0.0930838
0.163042
0.198266
0.225962
0.252375
0.280477
0.311511
0.344249
0.37744
0.410682
0.44425
0.478544
0.0759607
0.129248
0.162775
0.189355
0.213728
0.238964
0.267132
0.297243
0.328081
0.359335
0.391315
0.424394
0.0606784
0.0983623
0.130005
0.155063
0.176821
0.198742
0.223793
0.251099
0.279266
0.307951
0.337463
0.368207
0.0463445
0.0703041
0.0990174
0.121405
0.139591
0.157542
0.1791
0.203314
0.228402
0.25384
0.279895
0.307074
0.0329331
0.0451171
0.0679343
0.0846393
0.097285
0.109938
0.127144
0.14752
0.168544
0.189501
0.210425
0.232096
0.0145905
0.0187899
0.0291065
0.0368816
0.0418032
0.0463204
0.0532825
0.0625772
0.0725945
0.0821776
0.0916927
0.101294
)
;

boundaryField
{
    rotor
    {
        type            kqRWallFunction;
        value           nonuniform List<scalar> 
192
(
0.041888
0.0535404
0.0611277
0.0585229
0.0551124
0.0661717
0.165531
0.323619
0.398503
0.434158
0.460367
0.472556
0.477893
0.474429
0.468531
0.457972
0.440788
0.417571
0.387713
0.349952
0.303121
0.248142
0.190116
0.153807
0.0421909
0.0538645
0.0614304
0.0588394
0.0553163
0.0661878
0.1646
0.322767
0.397832
0.433475
0.459715
0.471919
0.477281
0.473832
0.467974
0.457446
0.440308
0.417134
0.387327
0.349619
0.302847
0.247926
0.189948
0.153668
0.0421996
0.0538639
0.0613902
0.0587532
0.0552826
0.0663829
0.166101
0.32396
0.398687
0.434356
0.46055
0.472738
0.478061
0.474584
0.46866
0.458077
0.440864
0.417623
0.387743
0.34996
0.303111
0.248118
0.190075
0.153771
0.0422003
0.0538779
0.0614476
0.0588608
0.055337
0.0661993
0.164604
0.322779
0.397832
0.433453
0.459685
0.471886
0.477253
0.473813
0.467968
0.45745
0.440323
0.417158
0.387357
0.349656
0.302889
0.247969
0.19
0.153715
0.041888
0.0863361
0.123498
0.159317
0.180469
0.186177
0.181213
0.174976
0.17375
0.182913
0.210478
0.597236
0.153715
0.343188
0.478754
0.58998
0.680841
0.770404
0.853781
0.951246
1.05593
1.1647
1.28893
1.46527
0.0421909
0.086444
0.123575
0.15926
0.180301
0.185985
0.181023
0.174793
0.173602
0.182771
0.210351
0.597266
0.153807
0.343392
0.47904
0.590342
0.681253
0.770857
0.854264
0.951752
1.05646
1.16524
1.28945
1.46579
0.0421996
0.086509
0.123848
0.159615
0.18077
0.186388
0.181354
0.175089
0.173796
0.182913
0.210443
0.597235
0.153668
0.343107
0.478677
0.589901
0.680763
0.770322
0.853693
0.951149
1.05583
1.1646
1.28882
1.46514
0.0422003
0.086461
0.123576
0.159247
0.180264
0.185951
0.180991
0.174754
0.173576
0.182759
0.210365
0.597365
0.153771
0.343331
0.478991
0.590305
0.681231
0.77085
0.854272
0.951779
1.05651
1.16532
1.28957
1.46598
)
;
    }
    stator
    {
        type            kqRWallFunction;
        value           nonuniform List<scalar> 
192
(
0.111528
0.123079
0.134267
0.144006
0.149485
0.147898
0.140433
0.12671
0.107183
0.0803253
0.0494375
0.0193126
0.0145878
0.0187796
0.0290872
0.0368667
0.0417961
0.0463192
0.0532842
0.0625752
0.0726132
0.0822245
0.0917656
0.101354
0.111506
0.123053
0.134242
0.14398
0.149455
0.147865
0.140398
0.126676
0.107152
0.080302
0.0494277
0.01931
0.0146338
0.0188418
0.0291893
0.0369936
0.0419334
0.0464465
0.0533935
0.0626621
0.0726916
0.0822946
0.0918272
0.101409
0.111568
0.123118
0.134312
0.144033
0.149522
0.147918
0.140462
0.126731
0.107202
0.0803442
0.0494573
0.0193206
0.0146073
0.0187941
0.0291032
0.0368991
0.0418381
0.0463548
0.0533048
0.0625729
0.0726084
0.0822179
0.0917556
0.10134
0.111502
0.123048
0.134232
0.143963
0.149429
0.147835
0.140368
0.126648
0.107131
0.0802878
0.0494203
0.0193074
0.0145905
0.0187899
0.0291065
0.0368816
0.0418032
0.0463204