/*--------------------------------*- C++ -*----------------------------------*\
| =========                 |                                                 |
| \\      /  F ield         | OpenFOAM: The Open Source CFD Toolbox           |
|  \\    /   O peration     | Version:  v1912                                 |
|   \\  /    A nd           | Website:  www.openfoam.com                      |
|    \\/     M anipulation  |                                                 |
\*---------------------------------------------------------------------------*/
FoamFile
{
    version     2.0;
    format      ascii;
    class       volScalarField;
    location    "250";
    object      nut;
}
// * * * * * * * * * * * * * * * * * * * * * * * * * * * * * * * * * * * * * //

dimensions      [0 2 -1 0 0 0 0];


internalField   nonuniform List<scalar> 
3072
(
3.18248e-05
6.59601e-05
7.05965e-05
6.91946e-05
6.69593e-05
7.27278e-05
0.000113239
0.000160644
0.000179039
0.000186992
0.000192689
0.000195297
5.1084e-05
0.000160941
0.000189843
0.000124057
0.000112232
0.000165158
0.000224864
0.000328724
0.000448598
0.000615908
0.000790517
0.00096245
6.74355e-05
0.000284428
0.000282419
0.000252873
0.00027856
0.000414345
0.000589949
0.000823337
0.0010993
0.00138107
0.00163898
0.00185535
8.39326e-05
0.000363529
0.000391448
0.000406208
0.000542784
0.000769795
0.00103501
0.00135779
0.00167959
0.00198112
0.00225083
0.00247053
9.70888e-05
0.00047325
0.000555921
0.000632282
0.000835456
0.00110964
0.00143304
0.00177372
0.00209997
0.0023956
0.00265721
0.00287438
0.000106565
0.000547791
0.000694136
0.000838703
0.00107854
0.00138693
0.00172045
0.00205491
0.00237014
0.00265468
0.00290243
0.00311007
0.00011299
0.000601962
0.000806756
0.00100527
0.00126596
0.00157595
0.0019013
0.00222028
0.00251854
0.00278744
0.00302177
0.0032183
0.000118736
0.000667449
0.000924337
0.00114393
0.00142631
0.00173242
0.00203868
0.0023318
0.0026027
0.0028459
0.0030581
0.00323716
0.000125952
0.000729135
0.00105179
0.00134616
0.00163807
0.00192117
0.00218532
0.0024297
0.00265315
0.00285439
0.00303167
0.00318281
0.000137029
0.000789365
0.00121756
0.0015564
0.00183721
0.0020738
0.00228177
0.00246886
0.00263885
0.00279482
0.00293588
0.00306028
0.000155357
0.000764979
0.00133459
0.00168013
0.00191557
0.00210774
0.00227585
0.00243146
0.00256657
0.00269194
0.0028068
0.0029102
0.000276033
0.000745644
0.0014035
0.00177046
0.00197118
0.00214546
0.00229397
0.00241638
0.00252245
0.00261778
0.00270423
0.00278234
0.000196479
0.000195805
0.000194662
0.000192507
0.000188942
0.00018395
0.0001773
0.000168477
0.000156819
0.000141939
0.000124274
6.09506e-05
0.00111682
0.00123027
0.00127682
0.0012677
0.0012127
0.00112301
0.000991264
0.000818864
0.000624977
0.000378368
0.000181475
0.000101902
0.00201257
0.00209425
0.00212763
0.00209381
0.00199762
0.00186162
0.00166046
0.00140255
0.00108862
0.000721352
0.000311468
0.000133158
0.00262926
0.00271766
0.00275981
0.00274086
0.00265857
0.00252546
0.00231457
0.00201764
0.00162581
0.00113754
0.000552029
0.000161945
0.00303693
0.0031385
0.0031918
0.00319039
0.00313287
0.00302314
0.00283768
0.00254844
0.00212905
0.00154868
0.000804021
0.000189163
0.00327191
0.00338404
0.00344985
0.00347235
0.0034501
0.00338267
0.00324196
0.00299736
0.00259467
0.0019728
0.00110598
0.000217374
0.00337424
0.00348911
0.00356518
0.00360569
0.00361233
0.00358536
0.00350727
0.00333744
0.00299861
0.00237982
0.00141944
0.000245842
0.0033807
0.00348846
0.00356572
0.00361615
0.0036422
0.00365232
0.00363592
0.00355577
0.00331614
0.00274736
0.00170946
0.000277444
0.00330556
0.00340329
0.00347911
0.00353611
0.00357595
0.00360866
0.00363678
0.0036396
0.00353555
0.0030743
0.00196574
0.000311248
0.0031667
0.00325592
0.00332941
0.00339123
0.00344568
0.00348893
0.00354467
0.0036097
0.00363149
0.00335077
0.00225444
0.000346768
0.00300146
0.00308117
0.00315038
0.00321138
0.00327636
0.00334017
0.00340427
0.00351176
0.00363163
0.00353167
0.0025884
0.000385714
0.00285294
0.00291779
0.00297724
0.00303605
0.00309858
0.00318978
0.00325737
0.00336825
0.00352965
0.00363396
0.00296723
0.000433527
3.20005e-05
6.62228e-05
7.0785e-05
6.93703e-05
6.7077e-05
7.27454e-05
0.000112941
0.000160439
0.000178888
0.000186844
0.000192552
0.000195167
5.11425e-05
0.000161273
0.000190156
0.000124551
0.000112362
0.000165029
0.000224486
0.000328085
0.000447553
0.000614653
0.000789096
0.000961233
6.74815e-05
0.000284798
0.000282849
0.000253136
0.000278115
0.000413361
0.000588743
0.000821641
0.00109738
0.00137894
0.00163679
0.00185319
8.39343e-05
0.000363733
0.000391429
0.000405853
0.00054188
0.000768673
0.00103299
0.00135565
0.0016773
0.0019786
0.00224815
0.00246776
9.7054e-05
0.000473186
0.000555729
0.000631525
0.000834071
0.00110783
0.00143084
0.00177133
0.00209739
0.00239283
0.00265426
0.00287134
0.000106517
0.000547552
0.000693671
0.00083772
0.00107702
0.00138491
0.00171816
0.00205239
0.00236741
0.00265176
0.00289936
0.00310687
0.000112935
0.000601701
0.000806158
0.00100417
0.00126435
0.00157392
0.00189898
0.00221772
0.00251578
0.00278449
0.00301865
0.00321506
0.000118674
0.000667158
0.000923709
0.0011429
0.00142492
0.0017307
0.00203669
0.00232957
0.00260025
0.00284323
0.00305525
0.00323413
0.000125896
0.000728787
0.00105122
0.0013453
0.001637
0.00191985
0.00218375
0.00242788
0.00265107
0.00285206
0.0030291
0.00318001
0.000136972
0.000789081
0.00121703
0.00155571
0.00183637
0.00207275
0.00228045
0.00246732
0.00263706
0.00279277
0.00293359
0.00305777
0.000155312
0.000764606
0.00133417
0.00167956
0.0019149
0.00210693
0.0022749
0.00243041
0.00256529
0.0026904
0.00280501
0.00290818
0.000276064
0.000745454
0.00140329
0.00177014
0.00197085
0.00214501
0.00229342
0.00241569
0.0025216
0.00261672
0.00270295
0.00278085
0.000196352
0.000195681
0.000194546
0.000192397
0.000188839
0.000183854
0.000177213
0.000168398
0.000156749
0.000141879
0.000124219
6.0924e-05
0.0011153
0.00122888
0.00127539
0.00126655
0.00121162
0.00112208
0.000990446
0.000818222
0.000624525
0.000378109
0.000181379
0.000101861
0.00201034
0.00209201
0.00212552
0.00209185
0.00199586
0.00186001
0.00165907
0.00140142
0.00108777
0.000720811
0.000311257
0.000133109
0.00262647
0.00271496
0.0027572
0.00273837
0.00265629
0.00252336
0.00231272
0.00201609
0.00162462
0.00113677
0.000551684
0.000161887
0.00303384
0.00313549
0.00318881
0.00318751
0.00313016
0.00302061
0.00283541
0.00254647
0.00212747
0.00154761
0.000803515
0.000189097
0.00326866
0.00338081
0.00344663
0.00346919
0.00344708
0.00337978
0.0032393
0.00299502
0.00259274
0.00197148
0.00110535
0.000217302
0.00337093
0.00348578
0.00356183
0.00360236
0.00360904
0.00358217
0.00350426
0.00333476
0.00299641
0.00237825
0.00141868
0.000245763
0.00337752
0.00348516
0.00356236
0.00361274
0.00363878
0.00364894
0.00363268
0.00355282
0.00331371
0.00274565
0.00170862
0.00027736
0.00330253
0.00340013
0.00347586
0.00353279
0.00357257
0.00360538
0.00363359
0.0036366
0.00353293
0.00307243
0.00196487
0.00031116
0.003164
0.00325306
0.00332644
0.00338818
0.00344259
0.00348579
0.00354149
0.0036066
0.00362875
0.00334876
0.0022535
0.000346678
0.00299924
0.00307877
0.00314784
0.00320874
0.00327356
0.0033374
0.00340141
0.00350887
0.0036289
0.00352954
0.00258743
0.000385625
0.00285125
0.00291592
0.0029752
0.00303388
0.0030963
0.00318747
0.00325512
0.0033659
0.00352727
0.0036319
0.0029662
0.000433436
3.19992e-05
6.62097e-05
7.07612e-05
6.9323e-05
6.70474e-05
7.28409e-05
0.000113476
0.000160744
0.000179081
0.000187034
0.000192725
0.000195333
5.11511e-05
0.000160856
0.00019006
0.000124077
0.000112336
0.000165188
0.00022512
0.000329051
0.000449105
0.000616507
0.000791196
0.00096314
6.75455e-05
0.000284887
0.000282671
0.000253033
0.000278989
0.000415324
0.000590826
0.000824458
0.0011004
0.00138222
0.00164014
0.00185651
8.403e-05
0.000364157
0.000392191
0.000407023
0.000543966
0.000770503
0.00103639
0.00135919
0.00168089
0.00198243
0.00225215
0.00247189
9.71855e-05
0.000474097
0.000557041
0.000633551
0.000836974
0.00111173
0.00143449
0.00177508
0.00210125
0.00239687
0.0026585
0.0028757
0.000106636
0.000548314
0.000695285
0.000839995
0.00107991
0.00138841
0.00172177
0.00205615
0.00237132
0.00265585
0.00290362
0.0031113
0.000113038
0.000602431
0.000807647
0.00100646
0.00126726
0.00157724
0.00190252
0.00222144
0.00251966
0.00278854
0.00302287
0.00321943
0.000118775
0.000667691
0.00092519
0.001145
0.00142742
0.00173351
0.00203977
0.00233286
0.00260374
0.00284692
0.00305913
0.00323821
0.000125965
0.000729345
0.00105238
0.00134695
0.00163889
0.00192206
0.00218625
0.00243065
0.00265411
0.00285535
0.00303265
0.00318382
0.000137024
0.000789309
0.00121778
0.00155674
0.00183773
0.00207448
0.00228256
0.0024697
0.00263974
0.00279576
0.00293686
0.00306129
0.000155341
0.000764714
0.00133448
0.00168022
0.00191586
0.00210824
0.00227659
0.0024322
0.00256744
0.00269292
0.00280784
0.00291129
0.000276048
0.000745497
0.00140338
0.00177042
0.00197137
0.00214584
0.00229472
0.00241722
0.0025234
0.00261881
0.00270532
0.00278348
0.000196511
0.000195834
0.000194686
0.000192527
0.000188956
0.000183959
0.000177305
0.000168477
0.000156815
0.000141932
0.00012426
6.0944e-05
0.00111755
0.00123099
0.00127756
0.00126832
0.00121327
0.00112348
0.00099168
0.000819174
0.000625157
0.000378445
0.000181486
0.000101893
0.00201375
0.00209545
0.00212877
0.00209487
0.00199854
0.00186242
0.0016611
0.00140302
0.00108891
0.000721491
0.000311512
0.000133151
0.00263064
0.00271902
0.00276114
0.00274212
0.0026597
0.00252648
0.00231541
0.0020183
0.00162627
0.00113781
0.000552107
0.000161941
0.00303829
0.00313987
0.00319317
0.00319174
0.00313414
0.00302428
0.00283865
0.00254923
0.00212961
0.00154901
0.000804132
0.00018916
0.00327319
0.00338535
0.00345118
0.00347368
0.00345138
0.0033839
0.00324308
0.00299828
0.00259535
0.00197321
0.00110613
0.000217374
0.00337541
0.00349032
0.00356642
0.00360697
0.00361361
0.00358661
0.00350844
0.00333846
0.0029994
0.0023803
0.00141964
0.000245844
0.00338178
0.00348958
0.00356688
0.00361737
0.00364345
0.00365357
0.00363715
0.0035569
0.00331705
0.00274796
0.0017097
0.000277449
0.00330661
0.00340437
0.00348023
0.00353728
0.00357719
0.00360992
0.00363808
0.00364087
0.00353667
0.00307505
0.00196601
0.000311258
0.00316775
0.00325701
0.00333055
0.00339241
0.00344693
0.00349025
0.00354603
0.00361109
0.00363278
0.00335171
0.00225475
0.000346782
0.00300259
0.00308233
0.00315158
0.00321262
0.00327767
0.00334155
0.00340573
0.0035133
0.00363316
0.00353285
0.00258878
0.000385734
0.00285413
0.00291902
0.00297852
0.00303739
0.0031
0.00319128
0.00325893
0.00336993
0.00353142
0.00363553
0.00296776
0.000433558
3.2004e-05
6.62306e-05
7.07928e-05
6.93801e-05
6.70881e-05
7.27524e-05
0.000112946
0.000160443
0.000178888
0.000186841
0.000192549
0.000195164
5.11474e-05
0.000161297
0.000190162
0.000124592
0.000112396
0.000164979
0.000224414
0.000327999
0.000447433
0.000614511
0.000788938
0.000961064
6.74823e-05
0.000284763
0.000282833
0.000253074
0.000277858
0.000413079
0.000588421
0.000821325
0.00109702
0.00137855
0.00163635
0.00185271
8.39333e-05
0.000363598
0.000391162
0.000405469
0.000541343
0.000767938
0.00103252
0.00135512
0.00167675
0.00197801
0.0022475
0.00246705
9.70476e-05
0.000472922
0.000555319
0.000630932
0.000833472
0.00110728
0.00143022
0.00177067
0.00209671
0.00239211
0.00265349
0.00287052
0.00010651
0.000547277
0.000693172
0.000837048
0.00107636
0.00138424
0.00171745
0.00205165
0.00236665
0.00265096
0.00289852
0.00310599
0.000112926
0.000601408
0.000805593
0.00100347
0.00126361
0.00157316
0.0018982
0.00221693
0.00251497
0.00278366
0.00301781
0.0032142
0.00011866
0.000666888
0.000923145
0.00114219
0.00142416
0.00172991
0.00203589
0.00232877
0.00259945
0.00284243
0.00305444
0.00323333
0.000125884
0.000728557
0.00105073
0.00134471
0.00163637
0.00191921
0.00218308
0.00242721
0.00265041
0.00285139
0.00302843
0.00317935
0.000136965
0.000788986
0.00121685
0.00155556
0.0018362
0.00207254
0.00228018
0.00246703
0.00263673
0.00279239
0.00293318
0.00305734
0.000155313
0.00076474
0.00133441
0.00167983
0.00191515
0.00210713
0.00227502
0.00243054
0.00256535
0.00269036
0.0028049
0.00290803
0.000276082
0.000745713
0.00140367
0.00177065
0.00197139
0.00214556
0.00229385
0.0024161
0.00252197
0.00261701
0.00270318
0.00278102
0.00019635
0.000195681
0.000194548
0.000192401
0.000188845
0.000183862
0.000177222
0.000168408
0.000156761
0.000141892
0.000124237
6.09335e-05
0.0011151
0.00122866
0.00127515
0.00126632
0.00121141
0.0011219
0.000990286
0.000818104
0.000624468
0.000378099
0.000181388
0.000101874
0.00200981
0.00209147
0.00212501
0.00209138
0.00199546
0.00185969
0.00165883
0.00140127
0.0010877
0.000720796
0.000311261
0.000133121
0.00262572
0.00271424
0.00275651
0.00273774
0.00265576
0.00252291
0.00231238
0.00201586
0.00162449
0.00113671
0.000551689
0.000161899
0.00303298
0.00313464
0.00318799
0.00318675
0.00312948
0.00302005
0.00283499
0.00254617
0.0021273
0.00154756
0.00080353
0.00018911
0.00326777
0.00337992
0.00344576
0.00346837
0.00344635
0.00337915
0.00323879
0.00299468
0.00259255
0.00197143
0.00110537
0.000217315
0.00337006
0.00348492
0.00356099
0.00360156
0.0036083
0.00358154
0.00350376
0.00333442
0.00299624
0.00237822
0.00141872
0.000245777
0.00337673
0.00348439
0.00356162
0.00361203
0.00363812
0.00364838
0.00363223
0.00355253
0.00331356
0.00274564
0.00170866
0.000277375
0.0033019
0.00339952
0.00347528
0.00353224
0.00357206
0.00360496
0.00363328
0.0036364
0.00353285
0.00307245
0.00196495
0.000311176
0.00316358
0.00325266
0.00332607
0.00338785
0.00344229
0.00348554
0.00354132
0.00360651
0.00362873
0.00334881
0.00225361
0.000346694
0.00299908
0.00307862
0.00314772
0.00320867
0.00327354
0.00333737
0.00340142
0.00350892
0.00362897
0.00352961
0.00258757
0.000385642
0.0028514
0.00291606
0.00297536
0.00303407
0.0030965
0.00318769
0.0032553
0.00336609
0.00352743
0.00363198
0.00296637
0.000433456
0.00165079
0.00172861
0.00185046
0.00200932
0.00214311
0.00227126
0.0023802
0.00246361
0.00253493
0.00259816
0.00265361
0.00270286
0.00264915
0.00248162
0.00241448
0.00241417
0.00244737
0.00248235
0.00251259
0.00254231
0.00257673
0.00261195
0.00263813
0.00266091
0.00330659
0.00311589
0.00295976
0.00284989
0.00277995
0.00273118
0.0026985
0.00267553
0.00266361
0.0026519
0.00264202
0.00263619
0.00355403
0.00339707
0.00324936
0.00311355
0.00298946
0.00288326
0.00280105
0.00274009
0.00269548
0.00266322
0.00264559
0.00264163
0.00274869
0.00279459
0.00284223
0.00289473
0.00295163
0.00304258
0.00312277
0.00322652
0.003401
0.00364411
0.00377196
0.00173237
0.0026849
0.00271441
0.00275156
0.00279917
0.00285522
0.00294042
0.00302903
0.00313233
0.00329715
0.00353185
0.00401468
0.00297556
0.00264838
0.0026747
0.00271202
0.00276231
0.00282538
0.00290378
0.00300262
0.00311133
0.00326204
0.00343782
0.00385396
0.00356373
0.00265401
0.00268892
0.00273643
0.00280038
0.00287883
0.00296303
0.00307258
0.00318524
0.00332603
0.00345241
0.00371934
0.00371461
0.00165091
0.00172868
0.00185052
0.00200921
0.00214293
0.00227099
0.00237984
0.00246315
0.00253433
0.0025974
0.00265269
0.00270177
0.00264961
0.00248191
0.00241467
0.00241427
0.00244731
0.0024822
0.00251235
0.00254199
0.00257623
0.00261133
0.00263739
0.00266003
0.00330721
0.00311642
0.00296015
0.00285005
0.00277998
0.00273111
0.00269829
0.00267517
0.00266316
0.00265138
0.00264143
0.00263549
0.0035549
0.00339765
0.00324973
0.00311373
0.00298946
0.00288315
0.00280077
0.00273956
0.00269496
0.00266273
0.00264513
0.00264125
0.00274743
0.00279317
0.00284068
0.00289308
0.00294991
0.00304082
0.00312112
0.0032248
0.00339923
0.00364237
0.00377077
0.00173205
0.00268391
0.00271335
0.00275044
0.00279802
0.00285408
0.00293935
0.00302805
0.00313135
0.00329621
0.00353095
0.00401381
0.00297538
0.00264766
0.00267401
0.00271137
0.00276177
0.00282496
0.00290351
0.0030025
0.00311134
0.00326212
0.00343794
0.00385398
0.00356406
0.00265373
0.0026889
0.00273661
0.00280077
0.00287936
0.0029638
0.00307346
0.00318633
0.00332714
0.00345358
0.00372039
0.00371567
0.00165091
0.00172874
0.00185066
0.00200953
0.00214349
0.00227176
0.00238089
0.00246446
0.00253589
0.00259921
0.00265473
0.00270405
0.00264967
0.00248217
0.00241505
0.00241483
0.00244807
0.00248313
0.00251344
0.00254324
0.00257776
0.00261306
0.0026393
0.00266213
0.00330777
0.00311708
0.00296092
0.00285102
0.00278104
0.00273231
0.00269963
0.00267665
0.00266476
0.00265307
0.00264325
0.00263749
0.00355608
0.0033989
0.00325102
0.00311507
0.00299083
0.00288462
0.00280234
0.00274125
0.0026967
0.0026645
0.00264694
0.00264305
0.00274993
0.00279589
0.0028436
0.00289617
0.00295315
0.00304425
0.00312446
0.00322836
0.00340297
0.00364613
0.00377301
0.00173276
0.00268619
0.00271579
0.00275303
0.00280075
0.00285691
0.00294221
0.00303091
0.00313438
0.00329932
0.00353406
0.00401655
0.00297662
0.00264977
0.00267621
0.00271364
0.00276407
0.00282726
0.0029058
0.00300471
0.00311356
0.00326433
0.00344019
0.0038563
0.00356547
0.00265554
0.00269066
0.0027383
0.00280239
0.00288092
0.00296525
0.00307479
0.00318759
0.00332836
0.0034548
0.00372173
0.00371663
0.0016512
0.00172912
0.00185109
0.00200992
0.00214371
0.00227183
0.00238061
0.00246387
0.00253503
0.00259802
0.00265325
0.00270227
0.00265049
0.00248277
0.00241556
0.00241523
0.0024483
0.0024832
0.00251328
0.00254294
0.00257723
0.00261218
0.0026382
0.00266079
0.00330877
0.00311782
0.00296145
0.00285122
0.00278114
0.00273229
0.00269942
0.00267627
0.0026643
0.00265242
0.00264241
0.00263641
0.0035567
0.00339935
0.0032513
0.00311514
0.00299075
0.0028844
0.00280194
0.00274057
0.00269597
0.0026637
0.00264609
0.00264206
0.00274789
0.00279362
0.00284114
0.00289354
0.00295036
0.00304125
0.00312145
0.00322508
0.0033994
0.00364237
0.00377093
0.00173204
0.00268463
0.00271404
0.00275112
0.00279866
0.00285465
0.00293984
0.00302839
0.00313152
0.0032962
0.00353076
0.00401357
0.00297506
0.00264852
0.00267479
0.00271206
0.00276233
0.00282538
0.00290374
0.00300251
0.0031111
0.00326161
0.0034372
0.00385303
0.00356302
0.00265438
0.00268924
0.0027368
0.00280075
0.00287918
0.00296332
0.00307271
0.00318521
0.00332573
0.00345185
0.00371847
0.00371354
0.00347031
0.00331781
0.00316953
0.00302993
0.00290142
0.00279198
0.00270748
0.00264708
0.0026087
0.002593
0.00260594
0.00264927
0.00340865
0.00326781
0.00312496
0.00298173
0.00284336
0.00272028
0.00261915
0.00254229
0.00248922
0.00246078
0.0024638
0.00250725
0.00336476
0.00323965
0.00310399
0.00295519
0.00279996
0.00265161
0.00251584
0.00239541
0.00228986
0.00219827
0.00212127
0.00208516
0.00332662
0.00321636
0.00309149
0.00294143
0.00276549
0.00258502
0.0024017
0.0022171
0.00202629
0.00180732
0.00155247
0.00132657
0.0027266
0.00284233
0.0029058
0.00298392
0.00307582
0.00317616
0.00328478
0.00339051
0.0034975
0.00359086
0.00365625
0.00362442
0.00263036
0.00288437
0.00296884
0.00305036
0.00314446
0.00324569
0.0033494
0.00344653
0.00353147
0.00358443
0.00360082
0.0035497
0.00219392
0.00278576
0.00294972
0.00304842
0.00314531
0.00324379
0.00334175
0.00343197
0.00350344
0.00353764
0.00353799
0.00348626
0.00131233
0.00247593
0.00284606
0.00299126
0.00310343
0.00320108
0.00329502
0.00338114
0.00344657
0.00347629
0.00347353
0.00342635
0.00347081
0.00331789
0.00316941
0.00302966
0.00290103
0.00279154
0.00270699
0.00264659
0.00260834
0.00259281
0.00260598
0.00264944
0.00340879
0.00326752
0.00312447
0.00298112
0.00284268
0.00271962
0.00261856
0.00254184
0.00248899
0.0024608
0.00246416
0.00250775
0.00336474
0.0032391
0.00310325
0.00295434
0.00279908
0.0026508
0.00251517
0.00239488
0.00228962
0.00219833
0.00212165
0.00208567
0.00332666
0.0032157
0.00309062
0.00294046
0.0027645
0.00258412
0.00240097
0.00221656
0.00202586
0.00180728
0.00155269
0.00132656
0.00272705
0.00284339
0.0029072
0.00298555
0.00307756
0.00317802
0.00328665
0.0033924
0.00349937
0.00359271
0.00365805
0.0036262
0.00263123
0.00288625
0.00297123
0.00305297
0.00314716
0.00324839
0.00335202
0.00344907
0.00353392
0.00358683
0.00360318
0.00355202
0.00219493
0.00278798
0.00295282
0.00305175
0.00314871
0.00324712
0.00334494
0.003435
0.00350632
0.00354042
0.00354071
0.00348892
0.00131314
0.0024782
0.00284948
0.00299507
0.00310732
0.00320485
0.0032986
0.00338451
0.00344973
0.0034793
0.00347645
0.00342918
0.00347263
0.00331976
0.00317127
0.00303151
0.00290288
0.00279339
0.00270883
0.00264839
0.00261006
0.00259443
0.00260747
0.00265086
0.00341112
0.00326985
0.00312674
0.00298333
0.00284484
0.00272169
0.0026205
0.0025436
0.00249054
0.00246212
0.00246522
0.0025087
0.00336738
0.00324171
0.00310577
0.00295677
0.00280142
0.00265299
0.00251714
0.00239659
0.00229098
0.00219934
0.00212236
0.00208626
0.00332948
0.00321849
0.0030933
0.00294301
0.00276694
0.00258638
0.00240295
0.0022182
0.00202716
0.0018081
0.00155315
0.0013271
0.00272831
0.00284431
0.00290791
0.00298609
0.00307799
0.00317836
0.00328694
0.0033927
0.00349968
0.00359304
0.00365834
0.00362636
0.00263196
0.00288639
0.00297101
0.00305255
0.00314662
0.00324782
0.00335148
0.00344859
0.00353351
0.00358641
0.00360274
0.00355152
0.00219524
0.00278759
0.00295182
0.00305052
0.00314737
0.00324579
0.00334371
0.0034339
0.00350531
0.00353944
0.00353974
0.00348795
0.00131316
0.00247748
0.00284797
0.0029932
0.00310532
0.00320291
0.00329681
0.0033829
0.00344825
0.00347789
0.0034751
0.00342784
0.00347257
0.00331953
0.00317094
0.00303106
0.00290232
0.00279271
0.00270804
0.0026475
0.00260915
0.00259347
0.00260642
0.00264973
0.00341048
0.00326912
0.00312597
0.0029825
0.00284394
0.00272074
0.00261952
0.00254263
0.00248958
0.00246113
0.00246415
0.0025076
0.00336633
0.00324063
0.0031047
0.00295567
0.00280032
0.0026519
0.00251609
0.00239563
0.00229009
0.00219844
0.00212142
0.00208531
0.00332813
0.00321715
0.00309201
0.00294174
0.0027657
0.00258521
0.00240187
0.00221725
0.00202653
0.00180735
0.00155246
0.00132646
0.00272704
0.00284278
0.00290627
0.00298433
0.0030761
0.00317628
0.00328465
0.0033901
0.00349679
0.00358989
0.00365505
0.00362324
0.00263072
0.00288478
0.00296928
0.00305074
0.00314468
0.00324569
0.0033491
0.00344587
0.00353045
0.00358313
0.0035994
0.00354842
0.00219415
0.00278603
0.00295011
0.00304877
0.00314549
0.00324373
0.00334136
0.00343119
0.00350217
0.00353609
0.00353635
0.0034849
0.00131251
0.0024761
0.0028464
0.00299161
0.00310363
0.00320104
0.00329463
0.00338031
0.00344518
0.00347459
0.00347176
0.00342497
0.00328812
0.0031869
0.00307903
0.00293456
0.00274216
0.0025314
0.00229949
0.00204573
0.00175599
0.00138217
0.000822165
0.00025239
0.00325438
0.00315713
0.00306105
0.0029317
0.00273286
0.00250227
0.00223473
0.00193203
0.00158548
0.00116283
0.000571574
0.000146195
0.00320965
0.00312569
0.00303726
0.00292822
0.00273496
0.00249932
0.00221602
0.00189262
0.00153586
0.00115868
0.000616694
0.000137784
0.0031421
0.00308212
0.00300383
0.00291587
0.00273886
0.00251241
0.00223191
0.00191119
0.00157153
0.00124634
0.00072846
0.000143191
0.00304508
0.00301328
0.00295036
0.00288295
0.0027313
0.00252338
0.00225799
0.00195166
0.0016294
0.00130093
0.000832463
0.000149271
0.00290944
0.00290499
0.00286363
0.0028162
0.00269358
0.00250967
0.00226521
0.00197514
0.00165826
0.00130418
0.000875011
0.000154819
0.00272239
0.00274234
0.00272485
0.0026973
0.00260324
0.00244602
0.00222435
0.00194948
0.00163189
0.00126743
0.000845102
0.000157911
0.00246424
0.0025037
0.00250956
0.00250046
0.00243161
0.00230255
0.00210549
0.00184749
0.00153365
0.00117031
0.000768555
0.000156461
0.00210473
0.0021563
0.00218114
0.0021871
0.00213998
0.00203738
0.00187338
0.0016399
0.00134508
0.00100334
0.000636547
0.000151151
0.00159765
0.00164953
0.00168354
0.00169811
0.00166963
0.00159244
0.00147446
0.00129085
0.00103908
0.000752509
0.000451047
0.000139849
0.000881283
0.000916443
0.000942563
0.000956099
0.000945456
0.000904001
0.000839819
0.000744888
0.000584667
0.000401945
0.000217703
0.000120524
9.27452e-05
9.73726e-05
0.000101596
0.000105097
0.000106901
0.000106238
0.00010346
9.82233e-05
9.02917e-05
7.81253e-05
6.12463e-05
3.82263e-05
0.000323022
0.00201455
0.00267558
0.00289753
0.00303045
0.00313089
0.00322362
0.00330808
0.00337471
0.00340994
0.00340924
0.00336929
0.000276649
0.00178243
0.00250103
0.00278208
0.00293135
0.00303729
0.00313166
0.00321683
0.00328663
0.00332934
0.00333923
0.00331545
0.000253194
0.0016045
0.00232685
0.00264496
0.0028069
0.00291948
0.00301778
0.00310644
0.00318056
0.00323184
0.00325488
0.00324789
0.000235695
0.00144846
0.00215008
0.0024842
0.00265571
0.00277448
0.002878
0.00297205
0.00305256
0.0031132
0.00314942
0.00315907
0.000220752
0.0013008
0.00196481
0.00230014
0.00247561
0.0025986
0.00270748
0.00280787
0.00289579
0.00296617
0.00301546
0.00304185
0.000206691
0.00114997
0.00176812
0.00209166
0.00226395
0.00238784
0.002501
0.00260751
0.0027028
0.00278258
0.0028443
0.00288683
0.000192695
0.000984895
0.00155476
0.00185651
0.0020172
0.00213733
0.00225236
0.00236336
0.00246457
0.00255222
0.00262469
0.00268167
0.000179078
0.000797999
0.00132078
0.00159084
0.00172977
0.00184014
0.00195309
0.00206503
0.00216869
0.00226083
0.0023406
0.00240857
0.000164529
0.000608886
0.0010642
0.00128727
0.00139211
0.00148544
0.00159032
0.00169692
0.00179654
0.00188697
0.00196775
0.00204041
0.000147697
0.000427034
0.000781035
0.000920308
0.000978894
0.00104765
0.00113568
0.00122837
0.00131655
0.0013977
0.00146932
0.00153576
0.000127803
0.000250505
0.00043328
0.000469615
0.000486701
0.000522051
0.000579588
0.000641729
0.000699199
0.000752881
0.000797852
0.000840391
3.36293e-05
3.81441e-05
4.74313e-05
5.342e-05
5.69191e-05
5.99655e-05
6.43404e-05
6.96782e-05
7.50178e-05
7.97667e-05
8.41983e-05
8.84043e-05
0.0032881
0.00318628
0.00307812
0.00293355
0.00274113
0.00253047
0.00229871
0.00204515
0.00175554
0.00138197
0.000822212
0.000252401
0.00325422
0.00315652
0.00306021
0.00293074
0.00273188
0.00250136
0.00223397
0.00193145
0.00158504
0.00116255
0.000571442
0.000146179
0.00320946
0.00312515
0.00303651
0.00292736
0.00273407
0.0024985
0.00221533
0.00189209
0.00153548
0.00115842
0.000616522
0.000137775
0.00314187
0.00308165
0.00300319
0.00291515
0.0027381
0.00251171
0.00223133
0.00191075
0.00157125
0.00124614
0.000728287
0.000143185
0.00304484
0.00301287
0.00294982
0.00288236
0.00273066
0.00252279
0.0022575
0.00195131
0.00162918
0.00130077
0.000832415
0.000149266
0.00290919
0.00290463
0.00286318
0.00281571
0.00269305
0.00250918
0.00226479
0.00197483
0.00165805
0.00130404
0.000875018
0.000154814
0.00272214
0.00274201
0.00272447
0.00269689
0.00260279
0.0024456
0.00222398
0.00194918
0.00163166
0.00126729
0.000845142
0.000157906
0.00246401
0.00250341
0.00250924
0.00250012
0.00243124
0.00230218
0.00210514
0.00184719
0.00153341
0.00117017
0.000768608
0.000156453
0.00210453
0.00215606
0.00218089
0.00218683
0.00213966
0.00203706
0.00187306
0.00163962
0.00134485
0.00100322
0.000636599
0.000151141
0.00159753
0.00164936
0.00168337
0.00169791
0.0016694
0.00159219
0.0014742
0.0012906
0.00103889
0.000752408
0.000451087
0.000139839
0.000881197
0.000916351
0.000942451
0.000955983
0.000945308
0.000903843
0.000839658
0.000744735
0.000584529
0.000401885
0.000217723
0.000120516
9.2738e-05
9.73617e-05
0.000101586
0.000105087
0.000106889
0.000106225
0.000103445
9.8209e-05
9.02784e-05
7.81143e-05
6.12384e-05
3.82211e-05
0.000323311
0.00201675
0.00267914
0.0029016
0.00303464
0.00313495
0.00322744
0.00331163
0.00337801
0.00341304
0.0034122
0.00337218
0.000276965
0.00178468
0.00250466
0.00278626
0.00293569
0.0030415
0.00313559
0.00322045
0.00328995
0.00333242
0.00334214
0.00331826
0.000253517
0.00160673
0.00233044
0.00264913
0.00281128
0.00292373
0.00302172
0.00311002
0.00318381
0.00323482
0.00325766
0.00325056
0.000236022
0.00145059
0.00215352
0.0024883
0.00266004
0.00277868
0.00288187
0.00297554
0.00305568
0.00311602
0.00315202
0.00316154
0.000221072
0.0013028
0.00196805
0.00230408
0.00247979
0.00260266
0.00271121
0.0028112
0.00289873
0.00296879
0.00301784
0.00304409
0.000207003
0.00115179
0.0017711
0.00209535
0.0022679
0.00239166
0.0025045
0.00261061
0.00270552
0.00278497
0.00284645
0.00288883
0.000192995
0.000986471
0.00155743
0.00185988
0.0020208
0.00214081
0.00225554
0.00236617
0.00246703
0.00255436
0.00262659
0.00268341
0.000179365
0.000799311
0.00132307
0.0015938
0.00173291
0.00184315
0.00195583
0.00206746
0.00217081
0.00226268
0.00234222
0.00241004
0.000164797
0.000609936
0.00106608
0.00128971
0.00139466
0.00148784
0.0015925
0.00169886
0.00179825
0.00188846
0.00196906
0.00204158
0.000147945
0.000427823
0.000782429
0.00092206
0.000980655
0.00104925
0.00113712
0.0012297
0.00131773
0.00139874
0.00147023
0.00153658
0.000128024
0.000251015
0.00043408
0.000470529
0.000487587
0.000522794
0.000580235
0.000642334
0.000699752
0.000753376
0.000798283
0.000840772
3.36831e-05
3.82081e-05
4.75146e-05
5.35106e-05
5.70105e-05
6.00456e-05
6.44051e-05
6.97271e-05
7.50594e-05
7.98024e-05
8.42288e-05
8.84314e-05
0.00329092
0.00318913
0.0030809
0.00293615
0.0027436
0.00253277
0.00230073
0.00204682
0.00175682
0.00138276
0.000822509
0.000252512
0.00325694
0.0031593
0.00306297
0.00293331
0.00273432
0.00250366
0.00223601
0.00193317
0.00158638
0.00116349
0.000571975
0.000146281
0.00321206
0.00312774
0.00303915
0.00292983
0.00273643
0.00250072
0.00221734
0.00189382
0.00153689
0.00115949
0.00061725
0.000137867
0.00314428
0.00308402
0.00300563
0.00291747
0.0027403
0.0025138
0.00223323
0.00191241
0.00157262
0.00124722
0.00072915
0.000143275
0.00304702
0.00301501
0.00295202
0.00288446
0.00273267
0.0025247
0.00225925
0.00195285
0.00163045
0.0013018
0.000833196
0.000149359
0.00291112
0.00290652
0.00286509
0.00281757
0.00269482
0.00251087
0.00226635
0.00197622
0.00165922
0.00130499
0.00087574
0.000154906
0.00272381
0.00274363
0.0027261
0.00269849
0.00260431
0.00244707
0.00222533
0.00195042
0.00163272
0.00126819
0.000845861
0.000157992
0.0024654
0.00250475
0.00251058
0.00250144
0.00243249
0.00230341
0.00210628
0.00184826
0.00153432
0.00117096
0.000769219
0.000156529
0.00210562
0.00215709
0.00218192
0.00218784
0.00214061
0.00203804
0.00187394
0.00164049
0.00134557
0.00100385
0.000637095
0.000151204
0.00159827
0.00165005
0.00168405
0.00169857
0.00167004
0.00159282
0.00147486
0.00129116
0.00103941
0.000752842
0.000451411
0.000139912
0.000881529
0.000916663
0.000942752
0.000956265
0.000945605
0.000904103
0.000839992