/*--------------------------------*- C++ -*----------------------------------*\
| =========                 |                                                 |
| \\      /  F ield         | OpenFOAM: The Open Source CFD Toolbox           |
|  \\    /   O peration     | Version:  v1912                                 |
|   \\  /    A nd           | Website:  www.openfoam.com                      |
|    \\/     M anipulation  |                                                 |
\*---------------------------------------------------------------------------*/
FoamFile
{
    version     2.0;
    format      ascii;
    class       volScalarField;
    location    "250";
    object      p;
}
// * * * * * * * * * * * * * * * * * * * * * * * * * * * * * * * * * * * * * //

dimensions      [0 2 -2 0 0 0 0];


internalField   nonuniform List<scalar> 
3072
(
-0.00128365
-0.150292
-0.294089
-0.373115
-0.380256
-0.372944
-0.278353
-0.0545656
-0.0406263
-0.391201
-0.784884
-1.15166
0.658159
0.420652
0.303199
0.284516
0.39757
0.612893
0.987972
1.75651
2.20012
2.38884
2.48895
2.54884
1.43706
1.17053
1.12498
1.22926
1.56627
1.99628
2.39241
2.79012
3.06529
3.25613
3.38774
3.45551
2.47548
2.31401
2.40541
2.7041
3.11754
3.52346
3.89779
4.22142
4.4585
4.64828
4.80178
4.92372
3.55406
3.52825
3.74018
4.11021
4.52252
4.9059
5.25793
5.55223
5.77459
5.94746
6.07853
6.17928
4.59923
4.70732
5.00031
5.40964
5.8288
6.20748
6.52218
6.77485
6.96871
7.11847
7.23217
7.3184
5.60713
5.85948
6.21627
6.6559
7.07869
7.43407
7.71137
7.92394
8.08251
8.20123
8.2897
8.35575
6.63745
7.02394
7.42553
7.87358
8.27625
8.59237
8.82509
8.99215
9.10982
9.19331
9.25338
9.29747
7.70771
8.22642
8.64878
9.07672
9.42995
9.68582
9.8594
9.97305
10.0456
10.0922
10.1236
10.1462
8.83268
9.45997
9.88302
10.2605
10.5375
10.7104
10.8103
10.8631
10.8874
10.8968
10.901
10.9041
10.0033
10.7649
11.1381
11.3894
11.5619
11.6346
11.6533
11.6438
11.6217
11.5979
11.5802
11.5687
11.0261
12.0978
12.3159
12.3587
12.4033
12.3841
12.3347
12.2768
12.2222
12.1787
12.1515
12.1356
-1.317
-1.33081
-1.14422
-0.812314
-0.329944
0.257996
0.925933
1.59763
2.20229
2.70845
2.96528
2.786
2.58016
2.62654
2.695
2.80432
2.94985
3.12559
3.32412
3.51188
3.67602
3.93944
3.89761
3.14754
3.51106
3.58038
3.67865
3.80626
3.94755
4.09474
4.22961
4.31542
4.32817
4.33554
4.19455
3.12592
5.0237
5.1086
5.18509
5.25263
5.30901
5.34697
5.35576
5.30451
5.16125
4.9639
4.68162
3.32667
6.25819
6.32068
6.36965
6.40412
6.42174
6.41511
6.37175
6.27406
6.08217
5.79876
5.45533
3.9234
7.38369
7.43264
7.46728
7.48701
7.48968
7.46935
7.41327
7.30851
7.12466
6.83817
6.48657
4.97364
8.405
8.44133
8.46693
8.48213
8.48567
8.47341
8.4374
8.3655
8.23556
8.02013
7.75844
6.4312
9.3308
9.35675
9.37791
9.39579
9.41094
9.42214
9.4254
9.41356
9.37724
9.29632
9.21949
8.2704
10.1648
10.182
10.2009
10.2241
10.2547
10.2953
10.3464
10.4075
10.4835
10.5741
10.7709
10.4035
10.9101
10.9199
10.937
10.9648
11.0083
11.0755
11.1722
11.3058
11.4929
11.7611
12.3418
12.7424
11.5663
11.5707
11.5858
11.6157
11.6664
11.7503
11.879
12.0675
12.3379
12.7557
13.7504
15.0687
12.133
12.1359
12.1499
12.1792
12.2304
12.3172
12.4537
12.6616
12.9554
13.4268
14.5222
16.5106
-0.00298966
-0.151628
-0.29555
-0.375056
-0.382546
-0.375259
-0.280887
-0.0568614
-0.0404033
-0.389601
-0.782679
-1.1493
0.657228
0.419146
0.301269
0.28215
0.394592
0.609549
0.98245
1.75135
2.1974
2.38664
2.48782
2.54801
1.43656
1.16937
1.12343
1.22708
1.56322
1.99324
2.38931
2.78728
3.06322
3.25438
3.38662
3.4547
2.4753
2.31327
2.40388
2.70171
3.11484
3.52076
3.89518
4.21914
4.45664
4.64669
4.80045
4.9225
3.55378
3.52757
3.73866
4.1081
4.52019
4.9036
5.25579
5.55032
5.77299
5.94603
6.07732
6.17813
4.59897
4.70657
4.99895
5.40782
5.82687
6.20565
6.52048
6.77337
6.96737
7.1173
7.23108
7.3174
5.60694
5.8588
6.21504
6.65435
7.0771
7.4326
7.71006
7.92276
8.08147
8.20027
8.28881
8.35489
6.63727
7.0233
7.42446
7.87227
8.27493
8.59117
8.82402
8.99121
9.10897
9.19254
9.25264
9.29675
7.70752
8.22591
8.64785
9.07564
9.42887
9.68484
9.85855
9.97231
10.0449
10.0916
10.123
10.1456
8.8325
9.45942
9.88221
10.2596
10.5367
10.7097
10.8097
10.8625
10.8869
10.8964
10.9006
10.9036
10.003
10.7644
11.1372
11.3887
11.5612
11.6341
11.6528
11.6434
11.6213
11.5976
11.5798
11.5683
11.0259
12.0974
12.3153
12.358
12.4027
12.3836
12.3343
12.2765
12.2219
12.1784
12.1511
12.1352
-1.3147
-1.32879
-1.14261
-0.811225
-0.329437
0.257877
0.925188
1.59627
2.20038
2.706
2.96259
2.78333
2.57965
2.626
2.69442
2.80354
2.94889
3.12436
3.32262
3.5101
3.67399
3.93707
3.89513
3.14532
3.51042
3.57976
3.67797
3.80543
3.94655
4.09354
4.22822
4.31385
4.32647
4.33371
4.19271
3.12444
5.02261
5.10757
5.18406
5.25156
5.30786
5.34572
5.35442
5.30307
5.15976
4.96242
4.68016
3.32567
6.25714
6.31966
6.36863
6.40307
6.42063
6.41394
6.37053
6.27277
6.08086
5.79745
5.4541
3.92256
7.38272
7.43169
7.46632
7.48601
7.48864
7.46825
7.41211
7.30731
7.12341
6.8369
6.48534
4.97274
8.40416
8.44048
8.46605
8.48121
8.48468
8.47236
8.43629
8.36433
8.23433
8.01886
7.75707
6.43006
9.33007
9.35599
9.3771
9.39492
9.41001
9.42113
9.42433
9.4124
9.37599
9.29489
9.21793
8.26886
10.1641
10.1813
10.2002
10.2233
10.2538
10.2943
10.3454
10.4063
10.4822
10.5726
10.7691
10.4015
10.9095
10.9193
10.9363
10.964
11.0074
11.0745
11.1712
11.3047
11.4916
11.7595
12.3397
12.74
11.5658
11.5701
11.5851
11.615
11.6655
11.7494
11.878
12.0664
12.3367
12.7542
13.7483
15.0658
12.1325
12.1352
12.1492
12.1784
12.2296
12.3163
12.4527
12.6605
12.9542
13.4254
14.5201
16.5077
-0.00455706
-0.153189
-0.297036
-0.376177
-0.383308
-0.376016
-0.281336
-0.0575166
-0.0442822
-0.394581
-0.787623
-1.15361
0.655724
0.417673
0.30012
0.281576
0.394974
0.610145
0.986614
1.75515
2.1979
2.38678
2.48692
2.54713
1.43564
1.16901
1.12355
1.22797
1.56549
1.99528
2.39144
2.78899
3.06391
3.25482
3.38642
3.45435
2.47518
2.31401
2.40577
2.70455
3.11751
3.52299
3.89711
4.22053
4.45748
4.64727
4.8008
4.92282
3.55382
3.52852
3.74072
4.11059
4.52249
4.90551
5.25733
5.55148
5.77376
5.94662
6.07772
6.17851
4.59864
4.70745
5.00058
5.40968
5.8285
6.20692
6.52149
6.7741
6.96795
7.11774
7.23148
7.31775
5.60609
5.85934
6.21623
6.65562
7.07811
7.43329
7.71055
7.92313
8.08175
8.20053
8.28905
8.35514
6.63621
7.0236
7.42521
7.87303
8.2754
8.59141
8.82411
8.99125
9.109
9.19258
9.25271
9.29685
7.70647
8.2259
8.64824
9.07591
9.4289
9.68468
9.85831
9.97207
10.0447
10.0914
10.1229
10.1456
8.83154
9.45935
9.88231
10.2595
10.5363
10.7092
10.8091
10.862
10.8865
10.896
10.9003
10.9035
10.0022
10.7642
11.1372
11.3882
11.5605
11.6333
11.652
11.6427
11.6207
11.5971
11.5794
11.568
11.0252
12.0971
12.3149
12.3574
12.4019
12.3827
12.3335
12.2757
12.2212
12.1778
12.1507
12.1349
-1.31831
-1.33156
-1.14462
-0.812454
-0.330016
0.257902
0.925676
1.59715
2.20153
2.70738
2.96408
2.78484
2.57872
2.62543
2.69413
2.80364
2.94927
3.12506
3.32356
3.51123
3.67525
3.93843
3.8965
3.1466
3.51007
3.57957
3.67797
3.80568
3.94702
4.09422
4.22907
4.31484
4.32755
4.33484
4.19376
3.12538
5.02285
5.10784
5.1844
5.25201
5.30844
5.34644
5.35526
5.30401
5.16076
4.96343
4.6811
3.32647
6.25747
6.32002
6.36903
6.40356
6.42121
6.41463
6.37131
6.27364
6.0818
5.79844
5.45503
3.92342
7.38307
7.43205
7.46673
7.48649
7.4892
7.4689
7.41286
7.30813
7.12434
6.83795
6.4864
4.97378
8.40442
8.44078
8.46641
8.48164
8.4852
8.47297
8.43699
8.36514
8.23526
8.01993
7.75831
6.43135
9.33022
9.35621
9.3774
9.39531
9.41048
9.4217
9.42499
9.41317
9.3769
9.29608
9.21934
8.27045
10.1642
10.1815
10.2004
10.2236
10.2542
10.2948
10.346
10.407
10.483
10.5737
10.7707
10.4034
10.9095
10.9194
10.9365
10.9643
11.0078
11.075
11.1718
11.3053
11.4924
11.7606
12.3414
12.742
11.5656
11.5701
11.5852
11.6152
11.6659
11.7498
11.8785
12.067
12.3373
12.7551
13.7499
15.0679
12.1323
12.1352
12.1493
12.1786
12.2299
12.3167
12.4532
12.661
12.9548
13.4261
14.5214
16.5096
-0.00352855
-0.152218
-0.296184
-0.375714
-0.383227
-0.375951
-0.28151
-0.057373
-0.0409359
-0.390424
-0.783771
-1.15063
0.656617
0.418418
0.3005
0.281353
0.393806
0.608854
0.981809
1.75104
2.19725
2.38646
2.48758
2.54768
1.43584
1.16844
1.12244
1.2261
1.56229
1.99245
2.3886
2.7867
3.0627
3.25387
3.38612
3.45418
2.47458
2.31236
2.40284
2.70072
3.11407
3.52017
3.8947
4.21871
4.45626
4.64634
4.8001
4.92218
3.55319
3.52681
3.73787
4.10742
4.51968
4.90322
5.25548
5.55005
5.77275
5.94581
6.0771
6.17793
4.59855
4.70597
4.99839
5.4074
5.82658
6.20546
6.52034
6.77324
6.96725
7.11717
7.23096
7.31729
5.60665
5.85832
6.21464
6.65412
7.07703
7.43259
7.71007
7.92275
8.08145
8.20022
8.28876
8.35484
6.63705
7.02291
7.42419
7.87219
8.275
8.59129
8.82413
8.99128
9.10901
9.19254
9.25262
9.29673
7.70732
8.22561
8.64767
9.07565
9.42901
9.68501
9.85868
9.9724
10.045
10.0916
10.123
10.1456
8.83232
9.45917
9.88208
10.2596
10.5368
10.7098
10.8098
10.8626
10.8869
10.8964
10.9005
10.9036
10.0028
10.7642
11.1371
11.3887
11.5612
11.6341
11.6528
11.6434
11.6213
11.5975
11.5797
11.5682
11.0258
12.0972
12.3152
12.358
12.4027
12.3836
12.3343
12.2765
12.2218
12.1783
12.151
12.1351
-1.31613
-1.33024
-1.14397
-0.812429
-0.330403
0.257195
0.924843
1.59627
2.20073
2.70669
2.96343
2.78414
2.57926
2.62557
2.694
2.80318
2.94862
3.12423
3.32266
3.51032
3.67438
3.93771
3.89589
3.14592
3.5099
3.57926
3.67754
3.80511
3.94634
4.09347
4.22828
4.31404
4.32675
4.3341
4.19319
3.12472
5.02232
5.10733
5.18387
5.25143
5.30781
5.34575
5.35453
5.30326
5.16001
4.96269
4.68048
3.32575
6.25696
6.31952
6.36853
6.40303
6.42065
6.41403
6.37068
6.27298
6.08112
5.79772
5.45438
3.92262
7.38263
7.43163
7.46631
7.48605
7.48874
7.46841
7.41233
7.30759
7.12372
6.83723
6.48568
4.9729
8.40413
8.44048
8.46609
8.4813
8.48484
8.47259
8.43658
8.36468
8.23473
8.01928
7.75753
6.43041
9.33006
9.35602
9.37717
9.39505
9.41021
9.42141
9.42468
9.41284
9.3765
9.29546
9.21856
8.26948
10.1641
10.1814
10.2002
10.2235
10.254
10.2946
10.3458
10.4068
10.4828
10.5733
10.7699
10.4025
10.9095
10.9193
10.9364
10.9642
11.0076
11.0748
11.1716
11.3052
11.4923
11.7604
12.3407
12.7413
11.5657
11.5701
11.5851
11.6151
11.6657
11.7497
11.8784
12.067
12.3374
12.755
13.7495
15.0674
12.1324
12.1352
12.1492
12.1785
12.2298
12.3166
12.4531
12.661
12.9549
13.4262
14.5213
16.5092
13.0859
13.3136
13.213
13.072
12.9842
12.8962
12.8067
12.726
12.663
12.6214
12.6044
12.5999
13.4596
13.3345
13.3256
13.2602
13.202
13.1318
13.0558
12.9902
12.9484
12.9334
12.9474
12.9719
13.5822
13.4913
13.4544
13.3797
13.3097
13.2379
13.1733
13.1299
13.1208
13.1487
13.2116
13.2814
13.6565
13.5721
13.4969
13.4056
13.3179
13.2387
13.1821
13.164
13.1993
13.2953
13.4443
13.6058
12.6103
12.6178
12.6335
12.6598
12.705
12.782
12.9027
13.0924
13.3413
13.6882
14.075
15.0556
13.0106
13.0284
13.0484
13.069
13.1006
13.1559
13.2433
13.3912
13.5787
13.8372
13.9686
14.2552
13.361
13.3881
13.4127
13.4221
13.4313
13.4519
13.4906
13.5772
13.6898
13.8741
13.9271
14.0122
13.7548
13.7792
13.8032
13.7878
13.756
13.7168
13.6776
13.6666
13.6723
13.7609
13.7706
13.8535
13.086
13.3131
13.2122
13.0714
12.9836
12.8958
12.8063
12.7257
12.6628
12.6212
12.604
12.5994
13.46
13.3341
13.325
13.2595
13.2015
13.1314
13.0555
12.9899
12.9481
12.9331
12.947
12.9714
13.5827
13.4911
13.4538
13.3793
13.3093
13.2375
13.173
13.1297
13.1205
13.1484
13.2112
13.2808
13.6572
13.5723
13.4968
13.4053
13.3176
13.2384
13.1818
13.1638
13.1991
13.295
13.4439
13.6052
12.6097
12.6171
12.6327
12.659
12.7041
12.781
12.9017
13.0914
13.3402
13.687
14.0737
15.0538
13.0099
13.0275
13.0475
13.068
13.0997
13.1549
13.2423
13.3903
13.5777
13.8361
13.9674
14.2541
13.3602
13.3872
13.4117
13.421
13.4302
13.4509
13.4897
13.5762
13.6889
13.8731
13.9262
14.0113
13.7538
13.778
13.8019
13.7866
13.7549
13.7158
13.6767
13.6658
13.6716
13.7602
13.7698
13.8528
13.085
13.3127
13.2118
13.0708
12.9829
12.895
12.8055
12.725
12.6621
12.6206
12.6036
12.5991
13.4592
13.3336
13.3245
13.2591
13.201
13.1307
13.0548
12.9893
12.9476
12.9326
12.9467
12.9711
13.582
13.4906
13.4535
13.3789
13.3088
13.237
13.1725
13.1292
13.1201
13.148
13.2109
13.2806
13.6565
13.5717
13.4963
13.4049
13.3172
13.2381
13.1815
13.1635
13.1988
13.2947
13.4436
13.605
12.6095
12.6171
12.6328
12.6592
12.7045
12.7814
12.9022
13.0919
13.3407
13.6875
14.0743
15.0551
13.0098
13.0276
13.0477
13.0683
13.1001
13.1554
13.2428
13.3908
13.5782
13.8366
13.9679
14.2548
13.3602
13.3873
13.4119
13.4214
13.4307
13.4513
13.4902
13.5768
13.6895
13.8737
13.9267
14.0119
13.7537
13.7781
13.8022
13.787
13.7553
13.7162
13.6772
13.6663
13.6722
13.7608
13.7705
13.8534
13.0859
13.313
13.2121
13.0714
12.9836
12.8958
12.8063
12.7257
12.6627
12.6211
12.6039
12.5993
13.4599
13.3341
13.325
13.2597
13.2016
13.1314
13.0555
12.99
12.9482
12.9331
12.947
12.9713
13.5826
13.4911
13.4539
13.3794
13.3094
13.2376
13.1731
13.1299
13.1207
13.1486
13.2112
13.2808
13.6571
13.5723
13.4968
13.4054
13.3177
13.2387
13.1821
13.1642
13.1995
13.2953
13.444
13.6053
12.6096
12.6171
12.6327
12.6591
12.7043
12.7813
12.9021
13.0919
13.3408
13.6877
14.0746
15.0547
13.0099
13.0276
13.0476
13.0682
13.0999
13.1552
13.2427
13.3907
13.5782
13.8367
13.968
14.2544
13.3603
13.3872
13.4118
13.4212
13.4305
13.4511
13.49
13.5766
13.6893
13.8735
13.9267
14.0114
13.7538
13.7781
13.8021
13.7868
13.7551
13.716
13.6769
13.666
13.6718
13.7603
13.7699
13.8527
13.719
13.6553
13.5767
13.4895
13.4016
13.3211
13.2617
13.2388
13.268
13.3588
13.4987
13.6696
13.7883
13.7313
13.6626
13.5884
13.5116
13.4373
13.3775
13.3464
13.3561
13.4091
13.5068
13.6364
13.8406
13.7884
13.7265
13.6601
13.5888
13.5154
13.4513
13.4133
13.4035
13.4377
13.5201
13.6341
13.8797
13.8315
13.7737
13.7109
13.6403
13.5625
13.4927
13.4431
13.4179
13.4454
13.528
13.5978
13.8775
13.923
13.9695
13.9613
13.9328
13.888
13.8358
13.7923
13.7561
13.7732
13.7497
13.7959
13.8706
13.9115
13.9708
13.9781
13.971
13.9514
13.9273
13.9079
13.8908
13.8954
13.8674
13.8622
13.9233
13.9351
13.9956
14.0101
14.0124
14.0042
13.9914
13.9794
13.9658
13.9599
13.9297
13.9063
14.073
13.9998
14.0336
14.0464
14.0502
14.0462
14.0374
14.0265
14.0114
13.9975
13.966
13.9359
13.7197
13.6555
13.5767
13.4894
13.4014
13.3209
13.2615
13.2387
13.2679
13.3586
13.4984
13.669
13.7891
13.7316
13.6627
13.5883
13.5114
13.4372
13.3773
13.3463
13.3559
13.4089
13.5066
13.636
13.8413
13.7887
13.7266
13.66
13.5887
13.5153
13.4512
13.4133
13.4034
13.4377
13.5201
13.6338
13.8803
13.8317
13.7738
13.7109
13.6402
13.5624
13.4926
13.4431
13.418
13.4455
13.528
13.5977
13.8767
13.9219
13.9683
13.96
13.9316
13.887
13.8349
13.7914
13.7554
13.7725
13.7491
13.7953
13.8699
13.9105
13.9697
13.977
13.9699
13.9504
13.9264
13.9072
13.8901
13.8948
13.8667
13.8616
13.9228
13.9342
13.9946
14.009
14.0114
14.0033
13.9906
13.9786
13.9651
13.9592
13.929
13.9056
14.0726
13.999
14.0326
14.0454
14.0492
14.0453
14.0366
14.0258
14.0107
13.9969
13.9654
13.9353
13.7191
13.655
13.5763
13.489
13.4011
13.3206
13.2612
13.2384
13.2676
13.3583
13.4981
13.6689
13.7884
13.731
13.6622
13.5879
13.5111
13.4368
13.377
13.346
13.3556
13.4085
13.5063
13.6358
13.8407
13.7881
13.7261
13.6596
13.5883
13.5149
13.4508
13.4129
13.403
13.4372
13.5196
13.6336
13.8797
13.8311
13.7732
13.7104
13.6398
13.562
13.4922
13.4426
13.4175
13.445
13.5276
13.5974
13.8766
13.922
13.9686
13.9604
13.9321
13.8875
13.8354
13.792
13.756
13.7732
13.7497
13.7959
13.8699
13.9106
13.97
13.9774
13.9704
13.9509
13.927
13.9077
13.8907
13.8954
13.8673
13.8622
13.9228
13.9343
13.9949
14.0094
14.0119
14.0038
13.9911
13.9792
13.9657
13.9598
13.9296
13.9063
14.0727
13.9992
14.033
14.0458
14.0497
14.0458
14.0372
14.0263
14.0113
13.9974
13.966
13.9359
13.7197
13.6556
13.5768
13.4895
13.4016
13.3211
13.2618
13.2391
13.2683
13.3589
13.4987
13.6692
13.7891
13.7316
13.6627
13.5884
13.5116
13.4373
13.3776
13.3466
13.3562
13.4092
13.5069
13.6361
13.8413
13.7887
13.7266
13.6601
13.5888
13.5154
13.4513
13.4135
13.4036
13.438
13.5202
13.6339
13.8804
13.8317
13.7738
13.7109
13.6403
13.5625
13.4927
13.4432
13.4181
13.4457
13.5282
13.5979
13.8767
13.922
13.9684
13.9602
13.9318
13.8872
13.8351
13.7917
13.7556
13.7727
13.7491
13.795
13.8699
13.9105
13.9698
13.9771
13.9701
13.9506
13.9266
13.9073
13.8903
13.895
13.8669
13.8613
13.9226
13.9342
13.9946
14.0091
14.0115
14.0034
13.9907
13.9788
13.9652
13.9594
13.9293
13.9055
14.0722
13.9989
14.0326
14.0454
14.0493
14.0453
14.0367
14.0258
14.0109
13.9971
13.9657
13.9353
13.9087
13.8628
13.807
13.7446
13.6708
13.5876
13.509
13.4352
13.3967
13.4016
13.4603
13.3907
13.9291
13.8842
13.8287
13.764
13.6849
13.5961
13.4962
13.4045
13.3516
13.3358
13.3953
13.3966
13.9428
13.8976
13.8413
13.7727
13.6881
13.5869
13.471
13.3705
13.3066
13.2893
13.3401
13.3777
13.9516
13.9054
13.8475
13.7744
13.6834
13.5705
13.4487
13.3409
13.274
13.2615
13.3085
13.3648
13.9572
13.9096
13.8499
13.7728
13.6754
13.557
13.4309
13.3208
13.2559
13.2493
13.2994
13.3659
13.961
13.9122
13.8508
13.7709
13.6691
13.5479
13.4199
13.3114
13.251
13.2514
13.31
13.38
13.9642
13.9147
13.8521
13.7706
13.6664
13.5441
13.4164
13.3115
13.2567
13.2643
13.3319
13.4046
13.9676
13.9182
13.8553
13.7733
13.6685
13.5464
13.4201
13.3193
13.2698
13.2843
13.3603
13.4341
13.9723
13.924
13.8618
13.7807
13.6764
13.5556
13.4302
13.333
13.2869
13.3068
13.3886
13.4638
13.9803
13.9349
13.8755
13.7967
13.6943
13.5742
13.4483
13.3519
13.3048
13.326
13.4105
13.4891
13.9933
13.9536
13.8999
13.8262
13.727
13.607
13.4776
13.3776
13.3216
13.3394
13.4266
13.5045
14.0034
13.9687
13.9212
13.8542
13.7609
13.6435
13.5158
13.4016
13.3426
13.3541
13.4372
13.5086
14.3713
14.1376
14.0807
14.0808
14.0814
14.078
14.0704
14.0589
14.0421
14.0232
13.9912
13.9583
14.3578
14.1951
14.1157
14.1073
14.1062
14.102
14.0941
14.0814
14.0629
14.0409
14.0089
13.9748
14.3184
14.1967
14.1389
14.127
14.1252
14.1203
14.1115
14.0972
14.0772
14.053
14.0211
13.9864
14.2788
14.186
14.1527
14.1413
14.1398
14.1344
14.1243
14.1084
14.0868
14.0612
14.0293
13.9943
14.2461
14.1765
14.161
14.1517
14.1509
14.1452
14.1338
14.1163
14.0934
14.0667
14.0347
13.9995
14.2237
14.1707
14.1664
14.1594
14.1593
14.1534
14.1407
14.1217
14.0977
14.0702
14.0384
14.0031
14.2122
14.1694
14.1703
14.1651
14.1654
14.1593
14.1455
14.1251
14.1003
14.0725
14.041
14.0058
14.2097
14.1734
14.1736
14.1694
14.1695
14.1631
14.1483
14.127
14.1017
14.0739
14.043
14.0085
14.2132
14.1826
14.1768
14.172
14.1709
14.1644
14.149
14.127
14.1018
14.0748
14.045
14.0118
14.22
14.1946
14.1799
14.1715
14.1682
14.1617
14.1462
14.1247
14.1005
14.0753
14.0477
14.0169
14.2293
14.2061
14.183
14.1681
14.1615
14.1539
14.1389
14.1189
14.0974
14.0753
14.0514
14.0249
14.2397
14.2151
14.1852
14.1661
14.1562
14.1465
14.1316
14.1136
14.0945
14.0749
14.0541
14.031
13.9092
13.8631
13.8072
13.7446
13.6708
13.5875
13.509
13.4353
13.3969
13.4017
13.4604
13.3907
13.9296
13.8844
13.8289
13.7641
13.6849
13.5961
13.4962
13.4046
13.3518
13.336
13.3955
13.3966
13.9432
13.8979
13.8414
13.7728
13.6882
13.5869
13.4711
13.3706
13.3068
13.2895
13.3403
13.3778
13.9519
13.9056
13.8476
13.7745
13.6834
13.5705
13.4488
13.341
13.2742
13.2617
13.3088
13.3649
13.9575
13.9099
13.85
13.7729
13.6755
13.5571
13.431
13.3209
13.2561
13.2496
13.2996
13.3661
13.9613
13.9125
13.851
13.771
13.6692
13.548
13.4199
13.3115
13.2512
13.2517
13.3102
13.3802
13.9645
13.915
13.8523
13.7707
13.6665
13.5442
13.4165
13.3117
13.2569
13.2646
13.3322
13.4048
13.9679
13.9185
13.8555
13.7735
13.6686
13.5465
13.4202
13.3195
13.2701
13.2846
13.3605
13.4343
13.9726
13.9243
13.8621
13.7809
13.6766
13.5557
13.4303
13.3332
13.2872
13.307
13.3888
13.4639
13.9806
13.9352
13.8757
13.7969
13.6944
13.5744
13.4484
13.3521
13.305
13.3263
13.4107
13.4893
13.9936
13.9539
13.9001
13.8264
13.7271
13.6072
13.4777
13.3778
13.3218
13.3396
13.4268
13.5046
14.0037
13.969
13.9215
13.8544
13.761
13.6436
13.5159
13.4018
13.3428
13.3544
13.4374
13.5088
14.3712
14.1369
14.0798
14.0798
14.0805
14.0771
14.0696
14.0582
14.0414
14.0225
13.9906
13.9576
14.3575
14.1945
14.1149
14.1064
14.1053
14.1012
14.0933
14.0807
14.0623
14.0402
14.0082
13.9741
14.3181
14.1961
14.1381
14.1261
14.1244
14.1195
14.1107
14.0965
14.0765
14.0523
14.0204
13.9857
14.2784
14.1853
14.1519
14.1405
14.1389
14.1336
14.1236
14.1077
14.0861
14.0605
14.0286
13.9936
14.2456
14.1758
14.1602
14.1509
14.15
14.1444
14.1331
14.1155
14.0927
14.066
14.0341
13.9988
14.2231
14.1699
14.1656
14.1585
14.1585
14.1526
14.14
14.1209
14.097
14.0695
14.0377
14.0024
14.2116
14.1686
14.1695
14.1643
14.1646
14.1585
14.1447
14.1244
14.0996
14.0718
14.0402
14.0051
14.209
14.1727
14.1729
14.1686
14.1687
14.1623
14.1475
14.1262
14.1009
14.0732
14.0423
14.0078
14.2125
14.1818
14.1761
14.1712
14.1701
14.1636
14.1482
14.1263
14.1011
14.0741
14.0443
14.011
14.2194
14.194
14.1792
14.1708
14.1674
14.1609
14.1455
14.1239
14.0998
14.0745
14.0469
14.0162
14.2287
14.2055
14.1823
14.1673
14.1607
14.1531
14.1381
14.1181
14.0967
14.0745
14.0507
14.0242
14.2392
14.2145
14.1845
14.1653
14.1554
14.1457
14.1308
14.1128
14.0938
14.0741
14.0533
14.0302
13.9086
13.8624
13.8066
13.744
13.6703
13.5871
13.5085
13.4348
13.3963
13.4011
13.4598
13.3902
13.9289
13.8838
13.8282
13.7635
13.6844
13.5956
13.4957
13.404
13.3511
13.3352
13.3948
13.396
13.9425
13.8972
13.8408
13.7721
13.6876
13.5863
13.4705
13.37
13.3061
13.2887
13.3395
13.3771
13.9512
13.9049
13.847
13.7738
13.6828
13.5699
13.4482
13.3403
13.2735
13.2609
13.308
13.3642
13.9568
13.9092
13.8494
13.7722
13.6748
13.5565
13.4304
13.3202
13.2554
13.2487
13.2988
13.3654
13.9606
13.9118
13.8503
13.7703
13.6686
13.5473
13.4194
13.3108
13.2505
13.2509
13.3094
13.3795
13.9637
13.9142
13.8516
13.77
13.6659
13.5434
13.4159
13.3109
13.2562
13.2638
13.3314
13.4041
13.9672
13.9177
13.8548
13.7727
13.668
13.5457
13.4196
13.3187
13.2693
13.2838
13.3598
13.4336
13.9719
13.9235
13.8614
13.78
13.6761
13.5548
13.43
13.3323
13.2866
13.3063
13.388
13.4633
13.9798
13.9344
13.875
13.7961
13.6938
13.5736
13.4479
13.3513
13.3044
13.3255
13.4099
13.4886
13.9929
13.9531
13.8994
13.8256
13.7265
13.6064
13.4772
13.377
13.3212
13.3388
13.4261
13.5039
14.0029
13.9682
13.9207
13.8536
13.7604
13.6428
13.5153
13.401
13.3421
13.3536
13.4366
13.5081
14.3713
14.137
14.0801
14.0802
14.0809
14.0776
14.0701
14.0587
14.042
14.0231
13.9912
13.9583
14.3576
14.1947
14.1152
14.1068
14.1058
14.1017
14.0939
14.0813
14.0628
14.0408
14.0089
13.9747
14.3182
14.1963
14.1384
14.1265
14.1248
14.12
14.1113
14.0971
14.077
14.0529
14.021
13.9864
14.2785
14.1855
14.1523
14.1409
14.1394
14.1341
14.1241
14.1082
14.0867
14.0611
14.0292
13.9942
14.2458
14.1761
14.1606
14.1513
14.1505
14.1449
14.1336
14.1161
14.0933
14.0666
14.0347
13.9995
14.2233
14.1702
14.1659
14.1589
14.1589
14.153
14.1405
14.1215
14.0976
14.0701
14.0383
14.003
14.2119
14.1689
14.1699
14.1647
14.1651
14.159
14.1453
14.125
14.1002
14.0724
14.0409
14.0057
14.2094
14.173
14.1732
14.169
14.1691
14.1628
14.1481
14.1268
14.1015
14.0738
14.0429
14.0084
14.2129
14.1822
14.1765
14.1716
14.1706
14.1641
14.1487
14.1269
14.1017
14.0747
14.0449
14.0117
14.2198
14.1943
14.1796
14.1712
14.1679
14.1614
14.146
14.1245
14.1004
14.0751
14.0476
14.0168
14.2291
14.2058
14.1827
14.1678
14.1611
14.1537
14.1387
14.1187
14.0973
14.0751
14.0513
14.0248
14.2395
14.2149
14.1849
14.1658
14.1559
14.1462
14.1313
14.1134
14.0943
14.0747
14.0539
14.0308
13.9092
13.8631
13.8072
13.7446
13.6708
13.5875
13.509
13.4354
13.397
13.4019
13.4606
13.391
13.9296
13.8844
13.8288
13.764
13.6849
13.5961
13.4962
13.4046
13.3519
13.3361
13.3956
13.3969
13.9431
13.8978
13.8414
13.7727
13.6881
13.5868
13.471
13.3707
13.3069
13.2897
13.3405
13.378
13.9519
13.9056
13.8475
13.7744
13.6833
13.5704
13.4487
13.341
13.2744
13.2619
13.309
13.3651
13.9574
13.9098
13.8499
13.7728
13.6753
13.557
13.4309
13.321
13.2562
13.2497
13.2998
13.3663
13.9612
13.9124
13.8508
13.7709
13.6691
13.5478
13.4199
13.3116
13.2514
13.2519
13.3104
13.3804
13.9644
13.9149
13.8522
13.7706
13.6664
13.5441
13.4164
13.3117
13.2571
13.2648
13.3324
13.405
13.9678
13.9184
13.8553
13.7733
13.6684
13.5464
13.4201
13.3195
13.2702
13.2847
13.3607
13.4345
13.9725
13.9242
13.8619
13.7807
13.6764
13.5556
13.4303
13.3332
13.2873
13.3072
13.389
13.4641
13.9804
13.935
13.8755
13.7967
13.6942
13.5742
13.4484
13.3521
13.3051
13.3264
13.4108
13.4894
13.9935
13.9537
13.8999
13.8262
13.7269
13.607
13.4777
13.3778
13.3219
13.3397
13.4269
13.5048
14.0035
13.9688
13.9213
13.8542
13.7608
13.6434
13.5158
13.4018
13.3429
13.3545
13.4375
13.5089
14.3704
14.1366
14.0797
14.0798
14.0804
14.0771
14.0696
14.0582
14.0415
14.0227
13.9909
13.9577
14.3567
14.1941
14.1148
14.1063
14.1053
14.1011
14.0933
14.0807
14.0623
14.0404
14.0085
13.9743
14.3174
14.1957
14.1379
14.126
14.1243
14.1195
14.1107
14.0965
14.0765
14.0525
14.0206
13.986
14.2778
14.185
14.1517
14.1403
14.1388
14.1335
14.1235
14.1076
14.0862
14.0606
14.0288
13.9939
14.2451
14.1756
14.16
14.1507
14.1499
14.1443
14.133
14.1155
14.0927
14.0661
14.0342
13.9992
14.2226
14.1697
14.1654
14.1584
14.1583
14.1525
14.1399
14.1209
14.097
14.0696
14.0378
14.0027
14.2112
14.1683
14.1693
14.1642
14.1645
14.1584
14.1446
14.1244
14.0996
14.0719
14.0404
14.0055
14.2086
14.1724
14.1726
14.1685
14.1686
14.1622
14.1474
14.1262
14.1009
14.0733
14.0424
14.0082
14.2121
14.1815
14.1758
14.171
14.17
14.1635
14.1481
14.1263
14.1011
14.0742
14.0444
14.0114
14.2189
14.1936
14.1789
14.1705
14.1673
14.1608
14.1454
14.1239
14.0998
14.0747
14.0471
14.0165
14.2282
14.205
14.182
14.1671
14.1605
14.153
14.1381
14.1181
14.0967
14.0746
14.0509
14.0246
14.2386
14.214
14.1842
14.1651
14.1553
14.1456
14.1307
14.1128
14.0938
14.0743
14.0536
14.0306
)
;

boundaryField
{
    rotor
    {
        type            zeroGradient;
    }
    stator
    {
        type            zeroGradient;
    }
    front
    {
        type            empty;
    }
    back
    {
        type            empty;
    }
}


// ************************************************************************* //
