/*--------------------------------*- C++ -*----------------------------------*\
| =========                 |                                                 |
| \\      /  F ield         | OpenFOAM: The Open Source CFD Toolbox           |
|  \\    /   O peration     | Version:  v1912                                 |
|   \\  /    A nd           | Website:  www.openfoam.com                      |
|    \\/     M anipulation  |                                                 |
\*---------------------------------------------------------------------------*/
FoamFile
{
    version     2.0;
    format      ascii;
    class       surfaceScalarField;
    location    "250";
    object      phi;
}
// * * * * * * * * * * * * * * * * * * * * * * * * * * * * * * * * * * * * * //

dimensions      [0 3 -1 0 0 0 0];
oriented        oriented;


internalField   nonuniform List<scalar> 
5952
(
5.53168e-06
-5.44116e-06
9.32191e-06
-3.79207e-06
1.20571e-05
-2.73341e-06
1.25977e-05
-5.39148e-07
9.9989e-06
2.59984e-06
4.32745e-06
5.67569e-06
-6.82868e-06
1.11562e-05
-2.32809e-05
1.64542e-05
-3.72325e-05
1.39513e-05
-4.80406e-05
1.08079e-05
-5.63231e-05
8.28242e-06
6.10245e-06
-6.24262e-05
2.12078e-06
-7.56166e-06
2.86543e-06
-4.53665e-06
2.33437e-07
-1.00249e-07
-6.1952e-06
5.8913e-06
-1.73438e-05
1.37492e-05
-3.04523e-05
1.87852e-05
-3.99655e-05
2.06698e-05
-4.36507e-05
2.014e-05
-4.66418e-05
1.69426e-05
-4.9575e-05
1.3741e-05
-5.21618e-05
1.08693e-05
7.89134e-06
-5.39512e-05
-7.36289e-07
-6.82506e-06
-4.1132e-06
-1.15908e-06
-1.11415e-05
6.92871e-06
-2.07517e-05
1.55024e-05
-2.85108e-05
2.15089e-05
-3.34036e-05
2.36787e-05
-3.6149e-05
2.34156e-05
-3.74706e-05
2.14619e-05
-3.87412e-05
1.82132e-05
-4.0064e-05
1.50636e-05
-4.1151e-05
1.19563e-05
8.80858e-06
-4.20685e-05
-4.37677e-06
-2.44742e-06
-1.03224e-05
4.787e-06
-1.67395e-05
1.33462e-05
-2.22092e-05
2.09729e-05
-2.56922e-05
2.49924e-05
-2.76759e-05
2.56628e-05
-2.87352e-05
2.44751e-05
-2.92885e-05
2.20153e-05
-2.98538e-05
1.87785e-05
-3.03442e-05
1.55538e-05
-3.07331e-05
1.23451e-05
9.17688e-06
-3.11017e-05
-5.50117e-06
3.05448e-06
-1.07992e-05
1.00854e-05
-1.5156e-05
1.77037e-05
-1.80671e-05
2.38848e-05
-1.95328e-05
2.64585e-05
-2.01289e-05
2.62593e-05
-2.01233e-05
2.44695e-05
-1.99244e-05
2.18164e-05
-1.987e-05
1.87237e-05
-1.98903e-05
1.55737e-05
-1.99655e-05
1.242e-05
9.28036e-06
-2.00694e-05
-4.87716e-06
7.93214e-06
-8.86132e-06
1.40705e-05
-1.14604e-05
2.03034e-05
-1.25275e-05
2.49528e-05
-1.25807e-05
2.65125e-05
-1.20406e-05
2.57197e-05
-1.12735e-05
2.37027e-05
-1.05593e-05
2.1102e-05
-1.00348e-05
1.81991e-05
-9.67378e-06
1.52124e-05
-9.44566e-06
1.21916e-05
9.14544e-06
-9.31102e-06
-3.82203e-06
1.17555e-05
-6.58393e-06
1.68333e-05
-7.62393e-06
2.13447e-05
-7.12112e-06
2.44514e-05
-5.78879e-06
2.51811e-05
-4.19707e-06
2.4129e-05
-2.68274e-06
2.21888e-05
-1.38991e-06
1.98096e-05
-3.80841e-07
1.719e-05
3.72066e-07
1.44595e-05
9.11326e-07
1.16522e-05
8.77349e-06
1.28317e-06
-3.04296e-06
1.48008e-05
-4.64148e-06
1.84334e-05
-4.19726e-06
2.09023e-05
-2.15928e-06
2.24149e-05
5.44753e-07
2.24785e-05
3.21675e-06
2.1458e-05
5.57719e-06
1.98291e-05
7.5364e-06
1.78508e-05
9.08433e-06
1.56424e-05
1.02673e-05
1.32765e-05
1.11462e-05
1.07734e-05
8.14103e-06
1.17787e-05
-2.45066e-06
1.72537e-05
-3.06476e-06
1.90493e-05
-9.40581e-07
1.87798e-05
2.67591e-06
1.87999e-05
6.71457e-06
1.84414e-05
1.04865e-05
1.76874e-05
1.3734e-05
1.65826e-05
1.64047e-05
1.5181e-05
1.85254e-05
1.35222e-05
2.01648e-05
1.16374e-05
2.14057e-05
9.53279e-06
7.22598e-06
2.23209e-05
-3.09609e-06
2.03514e-05
-1.19949e-06
1.71547e-05
3.51873e-06
1.40629e-05
8.84771e-06
1.34726e-05
1.40776e-05
1.32129e-05
1.87492e-05
1.30171e-05
2.27076e-05
1.26252e-05
2.59481e-05
1.19413e-05
2.85287e-05
1.09419e-05
3.05357e-05
9.63075e-06
3.20711e-05
7.99745e-06
6.07764e-06
3.32195e-05
3.85996e-08
2.03152e-05
6.55356e-06
1.0641e-05
1.34436e-05
7.17404e-06
1.97768e-05
7.14057e-06
2.53725e-05
7.61846e-06
3.0178e-05
8.21292e-06
3.4202e-05
8.60243e-06
3.7488e-05
8.65616e-06
4.01115e-05
8.31908e-06
4.21577e-05
7.58503e-06
4.37326e-05
6.42279e-06
4.89452e-06
4.4916e-05
1.98771e-05
4.38269e-07
2.8448e-05
2.07052e-06
3.43313e-05
1.29116e-06
3.92443e-05
2.2279e-06
4.33071e-05
3.55629e-06
4.67652e-05
4.75547e-06
4.97112e-05
5.65697e-06
5.21634e-05
6.20436e-06
5.41453e-05
6.3375e-06
5.56894e-05
6.04087e-06
5.68751e-05
5.23705e-06
5.77526e-05
4.01701e-06
-6.63953e-05
3.96923e-06
-6.8535e-05
2.13909e-06
-6.88471e-05
3.12759e-07
-6.75471e-05
-1.30078e-06
-6.46121e-05
-2.93467e-06
-5.99522e-05
-4.66081e-06
-5.34698e-05
-6.48207e-06
-4.50259e-05
-8.44351e-06
-3.44825e-05
-1.05434e-05
-2.19975e-05
-1.24841e-05
-9.21402e-06
-1.27823e-05
-9.21363e-06
-5.5123e-05
5.14141e-06
-5.55701e-05
2.58573e-06
-5.54166e-05
1.59817e-07
-5.45242e-05
-2.19341e-06
-5.28019e-05
-4.65661e-06
-5.01251e-05
-7.33767e-06
-4.63108e-05
-1.02959e-05
-4.11432e-05
-1.36105e-05
-3.4389e-05
-1.72967e-05
-2.57915e-05
-2.10813e-05
-1.44698e-05
-2.41033e-05
-2.36832e-05
-4.27412e-05
5.81419e-06
-4.31029e-05
2.94715e-06
-4.30608e-05
1.18012e-07
-4.24571e-05
-2.79723e-06
-4.12177e-05
-5.89577e-06
-3.92692e-05
-9.28601e-06
-3.64956e-05
-1.30689e-05
-3.27958e-05
-1.73096e-05
-2.80466e-05
-2.20455e-05
-2.17661e-05
-2.73614e-05
-1.30968e-05
-3.2772e-05
-3.67797e-05
-3.13715e-05
6.08384e-06
-3.14465e-05
3.02196e-06
-3.12439e-05
-8.45866e-08
-3.07047e-05
-3.33654e-06
-2.97749e-05
-6.82544e-06
-2.84101e-05
-1.06507e-05
-2.65331e-05
-1.49455e-05
-2.40593e-05
-1.9783e-05
-2.08213e-05
-2.5283e-05
-1.64123e-05
-3.177e-05
-9.98591e-06
-3.91978e-05
-4.67653e-05
-2.01377e-05
6.15194e-06
-2.01116e-05
2.99554e-06
-1.99429e-05
-2.53313e-07
-1.96008e-05
-3.67874e-06
-1.90601e-05
-7.36612e-06
-1.82935e-05
-1.14172e-05
-1.72596e-05
-1.59791e-05
-1.58947e-05
-2.11475e-05
-1.40238e-05
-2.71536e-05
-1.14768e-05
-3.43166e-05
-7.39349e-06
-4.32805e-05
-5.41586e-05
-9.22038e-06
6.06101e-06
-9.132e-06
2.90704e-06
-9.01818e-06
-3.67291e-07
-8.86666e-06
-3.83017e-06
-8.67325e-06
-7.55952e-06
-8.43534e-06
-1.16548e-05
-8.16952e-06
-1.62446e-05
-7.84265e-06
-2.1474e-05
-7.38656e-06
-2.76096e-05
-6.61237e-06
-3.50904e-05
-4.83163e-06
-4.5061e-05
-5.89901e-05
1.53215e-06
5.812e-06
1.69034e-06
2.74877e-06
1.773e-06
-4.49792e-07
1.77612e-06
-3.83322e-06
1.68109e-06
-7.46419e-06
1.45693e-06
-1.14304e-05
1.0614e-06
-1.58488e-05
4.66379e-07
-2.08789e-05
-3.27991e-07
-2.68149e-05
-1.22364e-06
-3.41948e-05
-1.82435e-06
-4.446e-05
-6.08143e-05
1.2214e-05
5.37672e-06
1.24817e-05
2.48108e-06
1.25894e-05
-5.57293e-07
1.25197e-05
-3.76324e-06
1.22318e-05
-7.17592e-06
1.16633e-05
-1.08617e-05
1.07282e-05
-1.49134e-05
9.32405e-06
-1.94745e-05
7.33849e-06
-2.48295e-05
4.71772e-06
-3.15737e-05
1.7955e-06
-4.15375e-05
-5.90185e-05
2.29722e-05
4.72561e-06
2.33922e-05
2.06135e-06
2.35865e-05
-7.51239e-07
2.35299e-05
-3.7063e-06
2.31643e-05
-6.80986e-06
2.24003e-05
-1.00973e-05
2.11045e-05
-1.36173e-05
1.90965e-05
-1.74664e-05
1.61293e-05
-2.18618e-05
1.19304e-05
-2.73746e-05
6.5193e-06
-3.61258e-05
-5.24989e-05
3.40589e-05
3.88635e-06
3.46264e-05
1.49413e-06
3.49311e-05
-1.05555e-06
3.49476e-05
-3.72238e-06
3.46087e-05
-6.47049e-06
3.38078e-05
-9.29604e-06
3.23718e-05
-1.2181e-05
3.00488e-05
-1.5143e-05
2.64316e-05
-1.82444e-05
2.1022e-05
-2.19645e-05
1.29377e-05
-2.80409e-05
-3.95602e-05
4.58007e-05
3.00196e-06
4.64209e-05
8.74392e-07
4.67895e-05
-1.4236e-06
4.68844e-05
-3.8168e-06
4.66387e-05
-6.22427e-06
4.5944e-05
-8.60086e-06
4.4608e-05
-1.08447e-05
4.2351e-05
-1.28856e-05
3.86186e-05
-1.45114e-05
3.26733e-05
-1.60186e-05
2.1984e-05
-1.73505e-05
-1.75753e-05
5.84291e-05
2.32561e-06
5.89218e-05
3.8201e-07
5.92446e-05
-1.74592e-06
5.93751e-05
-3.94677e-06
5.92507e-05
-6.0994e-06
5.87741e-05
-8.12382e-06
5.77672e-05
-9.83734e-06
5.59864e-05
-1.11043e-05
5.29092e-05
-1.14337e-05
4.75791e-05
-1.06881e-05
3.62196e-05
-5.99003e-06
1.86453e-05
5.46787e-06
-5.46563e-06
9.28906e-06
-3.82216e-06
1.20397e-05
-2.74966e-06
1.25918e-05
-5.51911e-07
1.00089e-05
2.58372e-06
4.35501e-06
5.65814e-06
-6.76084e-06
1.11174e-05
-2.32046e-05
1.64471e-05
-3.71709e-05
1.39675e-05
-4.79819e-05
1.08122e-05
-5.62712e-05
8.29044e-06
6.10642e-06
-6.23771e-05
2.12349e-06
-7.5878e-06
2.86378e-06
-4.56132e-06
2.38212e-07
-1.2345e-07
-6.17211e-06
5.85953e-06
-1.73004e-05
1.37123e-05
-3.04058e-05
1.87643e-05
-3.99436e-05
2.06557e-05
-4.36364e-05
2.01407e-05
-4.66185e-05
1.69503e-05
-4.9551e-05
1.3745e-05
-5.21357e-05
1.08756e-05
7.89634e-06
-5.39256e-05
-7.40402e-07
-6.84494e-06
-4.11328e-06
-1.18713e-06
-1.11267e-05
6.89097e-06
-2.07291e-05
1.54626e-05
-2.84952e-05
2.14789e-05
-3.33928e-05
2.36625e-05
-3.61433e-05
2.34065e-05
-3.74632e-05
2.14609e-05
-3.87287e-05
1.82158e-05
-4.00496e-05
1.50657e-05
-4.11344e-05
1.19604e-05
8.81278e-06
-4.20511e-05
-4.37607e-06
-2.46623e-06
-1.03159e-05
4.7539e-06
-1.67309e-05
1.33072e-05
-2.22032e-05
2.09355e-05
-2.56905e-05
2.49669e-05
-2.76753e-05
2.56478e-05
-2.87344e-05
2.44657e-05
-2.92853e-05
2.2012e-05
-2.98476e-05
1.87779e-05
-3.03364e-05
1.55543e-05
-3.07235e-05
1.23471e-05
9.17947e-06
-3.10906e-05
-5.49703e-06
3.03294e-06
-1.07961e-05
1.00544e-05
-1.51549e-05
1.76665e-05
-1.80697e-05
2.38518e-05
-1.95374e-05
2.64356e-05
-2.01334e-05
2.62444e-05
-2.01271e-05
2.44601e-05
-1.99261e-05
2.18108e-05
-1.98689e-05
1.87208e-05
-1.98874e-05
1.55723e-05
-1.99607e-05
1.24202e-05
9.28159e-06
-2.00633e-05
-4.87646e-06
7.91171e-06
-8.86296e-06
1.4041e-05
-1.14648e-05
2.02704e-05
-1.25355e-05
2.49237e-05
-1.25901e-05
2.64916e-05
-1.20494e-05
2.57054e-05
-1.12812e-05
2.36925e-05
-1.05647e-05
2.10952e-05
-1.00383e-05
1.81945e-05
-9.67536e-06
1.52096e-05
-9.44576e-06
1.21904e-05
9.14566e-06
-9.30984e-06
-3.82424e-06
1.17383e-05
-6.589e-06
1.68085e-05
-7.63385e-06
2.13167e-05
-7.13439e-06
2.44265e-05
-5.80274e-06
2.51624e-05
-4.2103e-06
2.41148e-05
-2.69413e-06
2.21781e-05
-1.39951e-06
1.98016e-05
-3.88432e-07
1.71843e-05
3.66063e-07
1.44555e-05
9.06803e-07
1.16501e-05
8.77284e-06
1.27982e-06
-3.0473e-06
1.47893e-05
-4.65053e-06
1.84138e-05
-4.2115e-06
2.08807e-05
-2.17661e-06
2.23943e-05
5.26829e-07
2.24612e-05
3.19989e-06
2.14439e-05
5.56195e-06
1.98176e-05
7.52306e-06
1.78417e-05
9.07277e-06
1.56354e-05
1.02574e-05
1.32715e-05
1.11377e-05
1.07701e-05
8.13947e-06
1.17714e-05
-2.45639e-06
1.72489e-05
-3.07478e-06
1.90358e-05
-9.5647e-07
1.87636e-05
2.6569e-06
1.87833e-05
6.6946e-06
1.84258e-05
1.04671e-05
1.76734e-05
1.3716e-05
1.65705e-05
1.63883e-05
1.51708e-05
1.85108e-05
1.3514e-05
2.01518e-05
1.16312e-05
2.13941e-05
9.52833e-06
7.22333e-06
2.23107e-05
-3.09952e-06
2.03526e-05
-1.2084e-06
1.71456e-05
3.50595e-06
1.40529e-05
8.83092e-06
1.34598e-05
1.40592e-05
1.31995e-05
1.87305e-05
1.30038e-05
2.26897e-05
1.26129e-05
2.59313e-05
1.19304e-05
2.85134e-05
1.09328e-05
3.05217e-05
9.62335e-06
3.20585e-05
7.9919e-06
6.07385e-06
3.32082e-05
4.06246e-08
2.03145e-05
6.55162e-06
1.0638e-05
1.34366e-05
7.16708e-06
1.97665e-05
7.13149e-06
2.53601e-05
7.60745e-06
3.01645e-05
8.20105e-06
3.4188e-05
8.59086e-06
3.74743e-05
8.64545e-06
4.00983e-05
8.30973e-06
4.21453e-05
7.57705e-06
4.37212e-05
6.41652e-06
4.88981e-06
4.49057e-05
1.98833e-05
4.32846e-07
2.84526e-05
2.06804e-06
3.43335e-05
1.28856e-06
3.92435e-05
2.22186e-06
4.33034e-05
3.54792e-06
4.67592e-05
4.74593e-06
4.97036e-05
5.64705e-06
5.21549e-05
6.1948e-06
5.41363e-05
6.32865e-06
5.56807e-05
6.03304e-06
5.68668e-05
5.23041e-06
5.7745e-05
4.01178e-06
-6.63506e-05
3.97454e-06
-6.84934e-05
2.14292e-06
-6.88096e-05
3.17231e-07
-6.75127e-05
-1.29723e-06
-6.45814e-05
-2.93084e-06
-5.99248e-05
-4.65729e-06
-5.34463e-05
-6.47824e-06
-4.50061e-05
-8.43984e-06
-3.44668e-05
-1.05394e-05
-2.19859e-05
-1.24801e-05
-9.20829e-06
-1.27764e-05
-9.20797e-06
-5.50973e-05
5.14687e-06
-5.55452e-05
2.59061e-06
-5.53921e-05
1.64746e-07
-5.45008e-05
-2.1887e-06
-5.27798e-05
-4.65156e-06
-5.01049e-05
-7.3323e-06
-4.62927e-05
-1.02901e-05
-4.11276e-05
-1.36044e-05
-3.43762e-05
-1.72902e-05
-2.57822e-05
-2.1074e-05
-1.44632e-05
-2.40949e-05
-2.3671e-05
-4.2723e-05
5.81874e-06
-4.30845e-05
2.95185e-06
-4.30428e-05
1.23047e-07
-4.24399e-05
-2.79183e-06
-4.12016e-05
-5.88983e-06
-3.92545e-05
-9.27942e-06
-3.64827e-05
-1.30616e-05
-3.27851e-05
-1.73017e-05
-2.80384e-05
-2.20366e-05
-2.17608e-05
-2.73514e-05
-1.30946e-05
-3.27607e-05
-3.67654e-05
-3.13594e-05
6.08722e-06
-3.14339e-05
3.02602e-06
-3.12313e-05
-7.98094e-08
-3.06924e-05
-3.33099e-06
-2.97634e-05
-6.81903e-06
-2.83995e-05
-1.06434e-05
-2.65238e-05
-1.49371e-05
-2.40515e-05
-1.97738e-05
-2.08152e-05
-2.52727e-05
-1.64079e-05
-3.17586e-05
-9.98321e-06
-3.91851e-05
-4.67485e-05
-2.01307e-05
6.1543e-06
-2.0104e-05
2.99894e-06
-1.99351e-05
-2.489e-07
-1.95931e-05
-3.67321e-06
-1.90528e-05
-7.35949e-06
-1.82868e-05
-1.14093e-05
-1.72537e-05
-1.597e-05
-1.58899e-05
-2.11374e-05
-1.402e-05
-2.71423e-05
-1.14744e-05
-3.43041e-05
-7.39295e-06
-4.32664e-05
-5.41414e-05
-9.21828e-06
6.06257e-06
-9.12924e-06
2.90985e-06
-9.01497e-06
-3.6318e-07
-8.86333e-06
-3.82482e-06
-8.66991e-06
-7.5528e-06
-8.43226e-06
-1.16468e-05
-8.1668e-06
-1.62352e-05
-7.84042e-06
-2.14634e-05
-7.38486e-06
-2.75978e-05
-6.61141e-06
-3.50774e-05
-4.83119e-06
-4.50463e-05
-5.89727e-05
1.52977e-06
5.81286e-06
1.68879e-06
2.75109e-06
1.77199e-06
-4.46105e-07
1.77559e-06
-3.82808e-06
1.68075e-06
-7.45767e-06
1.45673e-06
-1.14224e-05
1.06119e-06
-1.58393e-05
4.66075e-07
-2.08681e-05
-3.28508e-07
-2.68029e-05
-1.22422e-06
-3.41814e-05
-1.82529e-06
-4.44455e-05
-6.07978e-05
1.22078e-05
5.37676e-06
1.24765e-05
2.48268e-06
1.2585e-05
-5.54184e-07
1.25159e-05
-3.75865e-06
1.22285e-05
-7.1698e-06
1.16604e-05
-1.0854e-05
1.07255e-05
-1.49042e-05
9.32161e-06
-1.94639e-05
7.3364e-06
-2.48175e-05
4.71564e-06
-3.15608e-05
1.79415e-06
-4.15235e-05
-5.90036e-05
2.29632e-05
4.72462e-06
2.33843e-05
2.06202e-06
2.35796e-05
-7.4897e-07
2.35239e-05
-3.70247e-06
2.31589e-05
-6.8044e-06
2.23954e-05
-1.00902e-05
2.11001e-05
-1.36086e-05
1.90926e-05
-1.74561e-05
1.61256e-05
-2.18503e-05
1.19273e-05
-2.73619e-05
6.51692e-06
-3.61129e-05
-5.24863e-05
3.40489e-05
3.88428e-06
3.46175e-05
1.49378e-06
3.49231e-05
-1.05423e-06
3.49405e-05
-3.7194e-06
3.46022e-05
-6.46581e-06
3.38019e-05
-9.28955e-06
3.23664e-05
-1.21728e-05
3.00438e-05
-1.51331e-05
2.6427e-05
-1.82331e-05
2.10179e-05
-2.19524e-05
1.29347e-05
-2.80293e-05
-3.95505e-05
4.57915e-05
2.99895e-06
4.64126e-05
8.73104e-07
4.6782e-05
-1.42316e-06
4.68776e-05
-3.81458e-06
4.66324e-05
-6.22026e-06
4.59381e-05
-8.59483e-06
4.46025e-05
-1.08368e-05
4.23458e-05
-1.28759e-05
3.86135e-05
-1.45003e-05
3.26685e-05
-1.60069e-05
2.19806e-05
-1.73399e-05
-1.75698e-05
5.84223e-05
2.32183e-06
5.89156e-05
3.79988e-07
5.92389e-05
-1.74608e-06
5.93697e-05
-3.94505e-06
5.92454e-05
-6.09563e-06
5.87688e-05
-8.11793e-06
5.77618e-05
-9.82934e-06
5.5981e-05
-1.10946e-05
5.29038e-05
-1.14225e-05
4.75739e-05
-1.06762e-05
3.62149e-05
-5.98125e-06
1.86467e-05
5.46382e-06
-5.46027e-06
9.28245e-06
-3.81918e-06
1.20299e-05
-2.74474e-06
1.257e-05
-5.39369e-07
9.96837e-06
2.60516e-06
4.2951e-06
5.67764e-06
-6.87558e-06
1.11735e-05
-2.33222e-05
1.64497e-05
-3.7256e-05
1.39352e-05
-4.80544e-05
1.07994e-05
-5.63277e-05
8.27423e-06
6.09726e-06
-6.24248e-05
2.12404e-06
-7.58218e-06
2.84969e-06
-4.54377e-06
2.05436e-07
-9.898e-08
-6.23697e-06
5.90451e-06
-1.73946e-05
1.37637e-05
-3.04954e-05
1.87794e-05
-3.99814e-05
2.06603e-05
-4.36546e-05
2.01238e-05
-4.66445e-05
1.69259e-05
-4.95738e-05
1.3729e-05
-5.21579e-05
1.08589e-05
7.8837e-06
-5.39444e-05
-7.54613e-07
-6.82672e-06
-4.15046e-06
-1.14753e-06
-1.11937e-05
6.94478e-06
-2.07989e-05
1.55101e-05
-2.85344e-05
2.14996e-05
-3.34144e-05
2.36599e-05
-3.61505e-05
2.33967e-05
-3.74691e-05
2.14428e-05
-3.8739e-05
1.81961e-05
-4.00599e-05
1.505e-05
-4.11458e-05
1.19449e-05
8.79976e-06
-4.20619e-05
-4.39548e-06
-2.43088e-06
-1.03517e-05
4.80855e-06
-1.67647e-05
1.3358e-05
-2.22223e-05
2.09683e-05
-2.56965e-05
2.49743e-05
-2.76765e-05
2.56405e-05
-2.8733e-05
2.44538e-05
-2.92849e-05
2.19952e-05
-2.98497e-05
1.87612e-05
-3.03391e-05
1.55396e-05
-3.07276e-05
1.23336e-05
9.16785e-06
-3.10956e-05
-5.5128e-06
3.08163e-06
-1.08109e-05
1.01066e-05
-1.51628e-05
1.77105e-05
-1.80683e-05
2.38747e-05
-1.95314e-05
2.64384e-05
-2.01264e-05
2.62367e-05
-2.01197e-05
2.4448e-05
-1.99209e-05
2.17972e-05
-1.98663e-05
1.87073e-05
-1.98863e-05
1.55601e-05
-1.99612e-05
1.24088e-05
9.27147e-06
-2.00647e-05
-4.87938e-06
7.96117e-06
-8.86289e-06
1.40907e-05
-1.14592e-05
2.03079e-05
-1.25246e-05
2.49415e-05
-1.25776e-05
2.64933e-05
-1.20379e-05
2.56988e-05
-1.12713e-05
2.36833e-05
-1.05573e-05
2.10847e-05
-1.00328e-05
1.81841e-05
-9.67144e-06
1.51997e-05
-9.443e-06
1.21811e-05
9.13692e-06
-9.30799e-06
-3.8198e-06
1.17821e-05
-6.57965e-06
1.68513e-05
-7.61838e-06
2.13485e-05
-7.11657e-06
2.44418e-05
-5.786e-06
2.51652e-05
-4.19614e-06
2.41115e-05
-2.68266e-06
2.21722e-05
-1.39013e-06
1.97945e-05
-3.80851e-07
1.71768e-05
3.72446e-07
1.4448e-05
9.12161e-07
1.16425e-05
8.7654e-06
1.28449e-06
-3.03796e-06
1.48213e-05
-4.63294e-06
1.84485e-05
-4.18876e-06
2.0906e-05
-2.15334e-06
2.2409e-05
5.46945e-07
2.2467e-05
3.21648e-06
2.14447e-05
5.57545e-06
1.98155e-05
7.53437e-06
1.7838e-05
9.08246e-06
1.56306e-05
1.0266e-05
1.32661e-05
1.11454e-05
1.07643e-05
8.13321e-06
1.17784e-05
-2.44183e-06
1.72652e-05
-3.05261e-06
1.90611e-05
-9.292e-07
1.87845e-05
2.68337e-06
1.87983e-05
6.71769e-06
1.84349e-05
1.04863e-05
1.76783e-05
1.3732e-05
1.65722e-05
1.64019e-05
1.51704e-05
1.85226e-05
1.35119e-05
2.01624e-05
1.16279e-05
2.14038e-05
9.52412e-06
7.21835e-06
2.23195e-05
-3.08455e-06
2.03524e-05
-1.18534e-06
1.71633e-05
3.53166e-06
1.40693e-05
8.85661e-06
1.34746e-05
1.40824e-05
1.32108e-05
1.87504e-05
1.30118e-05
2.27068e-05
1.26178e-05
2.5946e-05
1.19327e-05
2.85263e-05
1.09331e-05
3.05333e-05
9.62206e-06
3.20689e-05
7.98929e-06
6.07027e-06
3.32177e-05
4.43603e-08
2.031e-05
6.56405e-06
1.06449e-05
1.34538e-05
7.18042e-06
1.97849e-05
7.14452e-06
2.53777e-05
7.6189e-06
3.01806e-05
8.21013e-06
3.42023e-05
8.59734e-06
3.7487e-05
8.64935e-06
4.01097e-05
8.31158e-06
4.21555e-05
7.57722e-06
4.37303e-05
6.41523e-06
4.88755e-06
4.49138e-05
1.98779e-05
4.32575e-07
2.84508e-05
2.07257e-06
3.4335e-05
1.29619e-06
3.92481e-05
2.23152e-06
4.33099e-05
3.55709e-06
4.67666e-05
4.75371e-06
4.9711e-05
5.653e-06
5.2162e-05
6.19871e-06
5.4143e-05
6.33084e-06
5.56866e-05
6.03368e-06
5.6872e-05
5.22994e-06
5.77494e-05
4.01033e-06
-6.63891e-05
3.96494e-06
-6.85254e-05
2.13627e-06
-6.88354e-05
3.10749e-07
-6.7534e-05
-1.30188e-06
-6.45986e-05
-2.93504e-06
-5.99388e-05
-4.66057e-06
-5.34574e-05
-6.48118e-06
-4.5015e-05
-8.44203e-06
-3.44738e-05
-1.05412e-05
-2.19917e-05
-1.24813e-05
-9.21189e-06
-1.27787e-05
-9.21154e-06
-5.51145e-05
5.13555e-06
-5.55599e-05
2.58162e-06
-5.54056e-05
1.57055e-07
-5.45126e-05
-2.19494e-06
-5.27903e-05
-4.65705e-06
-5.01138e-05
-7.33703e-06
-4.63003e-05
-1.02942e-05
-4.1134e-05
-1.36078e-05
-3.43815e-05
-1.7293e-05
-2.5786e-05
-2.10766e-05
-1.4466e-05
-2.40981e-05
-2.36773e-05
-4.27336e-05
5.8075e-06
-4.30944e-05
2.94233e-06
-4.30519e-05
1.14787e-07
-4.24479e-05
-2.79894e-06
-4.12087e-05
-5.89603e-06
-3.92606e-05
-9.28486e-06
-3.6488e-05
-1.30664e-05
-3.27892e-05
-1.73059e-05
-2.80412e-05
-2.20405e-05
-2.17623e-05
-2.73552e-05
-1.30949e-05
-3.27649e-05
-3.67719e-05
-3.1365e-05
6.0769e-06
-3.14396e-05
3.01689e-06
-3.12368e-05
-8.79402e-08
-3.06975e-05
-3.33825e-06
-2.97679e-05
-6.82555e-06
-2.84034e-05
-1.06493e-05
-2.6527e-05
-1.49423e-05
-2.4054e-05
-1.97786e-05
-2.08169e-05
-2.52771e-05
-1.6409e-05
-3.17627e-05
-9.98398e-06
-3.91895e-05
-4.67556e-05
-2.01327e-05
6.14501e-06
-2.01063e-05
2.99043e-06
-1.99374e-05
-2.56728e-07
-1.95952e-05
-3.68045e-06
-1.90545e-05
-7.36615e-06
-1.82882e-05
-1.14155e-05
-1.72547e-05
-1.59755e-05
-1.58904e-05
-2.11424e-05
-1.40203e-05
-2.71468e-05
-1.14743e-05
-3.43084e-05
-7.39229e-06
-4.3271e-05
-5.41477e-05
-9.21699e-06
6.05428e-06
-9.12831e-06
2.90197e-06
-9.01422e-06
-3.70684e-07
-8.86256e-06
-3.8319e-06
-8.66909e-06
-7.55946e-06
-8.43131e-06
-1.16529e-05
-8.1657e-06
-1.62408e-05
-7.83937e-06
-2.14684e-05
-7.38397e-06
-2.76021e-05
-6.61058e-06
-3.50814e-05
-4.83068e-06
-4.50506e-05
-5.89782e-05
1.53388e-06
5.80545e-06
1.69249e-06
2.74378e-06
1.77542e-06
-4.53202e-07
1.77879e-06
-3.83492e-06
1.68384e-06
-7.4641e-06
1.45968e-06
-1.14284e-05
1.06396e-06
-1.58447e-05
4.68535e-07
-2.08727e-05
-3.2644e-07
-2.68068e-05
-1.22278e-06
-3.41851e-05
-1.82391e-06
-4.44491e-05
-6.08019e-05
1.22142e-05
5.37026e-06
1.24824e-05
2.47607e-06
1.25905e-05
-5.60728e-07
1.2521e-05
-3.76496e-06
1.22331e-05
-7.17578e-06
1.16647e-05
-1.08595e-05
1.07294e-05
-1.49091e-05
9.32497e-06
-1.9468e-05
7.33898e-06
-2.48209e-05
4.71774e-06
-3.15635e-05
1.79534e-06
-4.15264e-05
-5.90063e-05
2.29713e-05
4.7192e-06
2.33917e-05
2.05635e-06
2.35863e-05
-7.54655e-07
2.35299e-05
-3.70795e-06
2.31642e-05
-6.8096e-06
2.24002e-05
-1.0095e-05
2.11042e-05
-1.36128e-05
1.90961e-05
-1.74596e-05
1.61285e-05
-2.18529e-05
1.19294e-05
-2.73641e-05
6.51843e-06
-3.61148e-05
-5.24876e-05
3.40574e-05
3.88008e-06
3.46251e-05
1.48927e-06
3.49298e-05
-1.05878e-06
3.49463e-05
-3.7238e-06
3.46072e-05
-6.46994e-06
3.3806e-05
-9.29339e-06
3.23699e-05
-1.21762e-05
3.00466e-05
-1.5136e-05
2.64294e-05
-1.82354e-05
2.10199e-05
-2.19541e-05
1.29359e-05
-2.80302e-05
-3.95506e-05
4.57986e-05
2.99601e-06
4.64187e-05
8.69905e-07
4.67871e-05
-1.42641e-06
4.68817e-05
-3.81774e-06
4.66356e-05
-6.22321e-06
4.59404e-05
-8.59769e-06
4.46042e-05
-1.08394e-05
4.23469e-05
-1.28783e-05
3.86145e-05
-1.45024e-05
3.26696e-05
-1.60086e-05
2.19813e-05
-1.73407e-05
-1.75683e-05
5.84259e-05
2.31994e-06
5.89183e-05
3.77975e-07
5.92407e-05
-1.74817e-06
5.93707e-05
-3.94707e-06
5.92457e-05
-6.09765e-06
5.87685e-05
-8.11996e-06
5.7761e-05
-9.83149e-06
5.59798e-05
-1.10965e-05
5.29026e-05
-1.14246e-05
4.75732e-05
-1.06788e-05
3.62154e-05
-5.98184e-06
1.8648e-05
5.46952e-06
-5.46724e-06
9.29164e-06
-3.82307e-06
1.20427e-05
-2.7501e-06
1.25955e-05
-5.52529e-07
1.0013e-05
2.58339e-06
4.35683e-06
5.66039e-06
-6.7625e-06
1.11209e-05
-2.32125e-05
1.64533e-05
-3.71837e-05
1.39724e-05
-4.79979e-05
1.08154e-05
-5.62893e-05
8.29257e-06
6.10761e-06
-6.23964e-05
2.12489e-06
-7.59078e-06
2.86736e-06
-4.56438e-06
2.42592e-07
-1.24657e-07
-6.16864e-06
5.85984e-06
-1.73006e-05
1.37157e-05
-3.04122e-05
1.87728e-05
-3.99551e-05
2.06644e-05
-4.36497e-05
2.01487e-05
-4.66331e-05
1.69564e-05
-4.95666e-05
1.37492e-05
-5.2152e-05
1.08785e-05
7.89776e-06
-5.39422e-05
-7.37811e-07
-6.85051e-06
-4.10817e-06
-1.19271e-06
-1.11213e-05
6.88953e-06
-2.07284e-05
1.54675e-05
-2.85018e-05
2.14896e-05
-3.3403e-05
2.36744e-05
-3.61554e-05
2.3417e-05
-3.74759e-05
2.14695e-05
-3.87418e-05
1.82224e-05
-4.0063e-05
1.50704e-05
-4.11479e-05
1.19633e-05
8.8141e-06
-4.20645e-05
-4.3741e-06
-2.47376e-06
-1.03143e-05
4.7487e-06
-1.67327e-05
1.33092e-05
-2.22097e-05
2.09452e-05
-2.56997e-05
2.49803e-05
-2.76857e-05
2.56609e-05
-2.87455e-05
2.4477e-05
-2.92968e-05
2.20209e-05
-2.98591e-05
1.87844e-05
-3.03476e-05
1.55587e-05
-3.07344e-05
1.23497e-05
9.18039e-06
-3.1101e-05
-5.49642e-06
3.0248e-06
-1.07977e-05
1.00515e-05
-1.51595e-05
1.76715e-05
-1.80769e-05
2.3864e-05
-1.95458e-05
2.64501e-05
-2.01422e-05
2.6258e-05
-2.01359e-05
2.44713e-05
-1.99346e-05
2.18194e-05
-1.98771e-05
1.87271e-05
-1.98953e-05
1.55763e-05
-1.99682e-05
1.24224e-05
9.28212e-06
-2.00704e-05
-4.87742e-06
7.9046e-06
-8.86556e-06
1.40397e-05
-1.14692e-05
2.02772e-05
-1.25411e-05
2.49371e-05
-1.25962e-05
2.65067e-05
-1.20553e-05
2.57188e-05
-1.12867e-05
2.37033e-05
-1.05698e-05
2.11034e-05
-1.00431e-05
1.82003e-05
-9.67979e-06
1.52133e-05
-9.4499e-06
1.21922e-05
9.14588e-06
-9.31368e-06
-3.82551e-06
1.17325e-05
-6.59154e-06
1.68085e-05
-7.6372e-06
2.13243e-05
-7.13763e-06
2.44399e-05
-5.80556e-06
2.5177e-05
-4.21256e-06
2.41276e-05
-2.69592e-06
2.21884e-05
-1.40096e-06
1.98095e-05
-3.8961e-07
1.71899e-05
3.65091e-07
1.4459e-05
9.06005e-07
1.16517e-05
8.77289e-06
1.27918e-06
-3.0487e-06
1.4785e-05
-4.65301e-06
1.84149e-05
-4.21397e-06
2.08883e-05
-2.17782e-06
2.24063e-05
5.27033e-07
2.24744e-05
3.20102e-06
2.14557e-05
5.56362e-06
1.98274e-05
7.52503e-06
1.78493e-05
9.0749e-06
1.56408e-05
1.02596e-05
1.32749e-05
1.11399e-05
1.07718e-05
8.13949e-06
1.17736e-05
-2.45867e-06
1.72468e-05
-3.07764e-06
1.90374e-05
-9.58408e-07
1.87702e-05
2.65698e-06
1.87934e-05
6.69665e-06
1.84369e-05
1.04705e-05
1.7684e-05
1.37201e-05
1.65796e-05
1.63928e-05
1.51781e-05
1.85154e-05
1.35192e-05
2.01565e-05
1.16345e-05
2.13987e-05
9.52995e-06
7.2234e-06
2.23152e-05
-3.10218e-06
2.03532e-05
-1.21147e-06
1.71477e-05
3.50428e-06
1.40582e-05
8.83138e-06
1.34677e-05
1.40616e-05
1.32087e-05
1.87344e-05
1.30129e-05
2.26946e-05
1.2621e-05
2.59367e-05
1.19371e-05
2.85191e-05
1.09378e-05
3.05275e-05
9.62653e-06
3.20644e-05
7.99345e-06
6.07393e-06
3.32141e-05
3.9718e-08
2.03159e-05
6.54975e-06
1.0641e-05
1.34352e-05
7.17182e-06
1.97665e-05
7.13806e-06
2.53616e-05
7.61512e-06
3.01673e-05
8.20865e-06
3.4192e-05
8.59781e-06
3.7479e-05
8.65135e-06
4.01036e-05
8.31414e-06
4.21509e-05
7.57982e-06
4.37271e-05
6.41779e-06
4.88976e-06
4.49116e-05
1.98804e-05
4.37241e-07
2.8449e-05
2.07173e-06
3.43299e-05
1.29324e-06
3.92405e-05
2.22773e-06
4.33017e-05
3.55432e-06
4.67589e-05
4.75213e-06
4.97046e-05
5.65268e-06
5.2157e-05
6.19958e-06
5.41393e-05
6.33215e-06
5.56844e-05
6.03504e-06
5.6871e-05
5.23113e-06
5.77496e-05
4.01134e-06
-6.63704e-05
3.97497e-06
-6.85131e-05
2.14281e-06
-6.88286e-05
3.16603e-07
-6.75309e-05
-1.29812e-06
-6.45983e-05
-2.93204e-06
-5.99403e-05
-4.65881e-06
-5.346e-05
-6.48001e-06
-4.50178e-05
-8.44191e-06
-3.4476e-05
-1.05418e-05
-2.19923e-05
-1.24829e-05
-9.21102e-06
-1.27802e-05
-9.21071e-06
-5.51138e-05
5.14723e-06
-5.55613e-05
2.59012e-06
-5.54077e-05
1.63584e-07
-5.45156e-05
-2.1904e-06
-5.27936e-05
-4.65383e-06
-5.01174e-05
-7.33512e-06
-4.63036e-05
-1.02934e-05
-4.11369e-05
-1.36082e-05
-3.43836e-05
-1.72944e-05
-2.57876e-05
-2.10787e-05
-1.44671e-05
-2.41003e-05
-2.36776e-05
-4.27362e-05
5.81883e-06
-4.30972e-05
2.95092e-06
-4.30549e-05
1.21229e-07
-4.24511e-05
-2.79446e-06
-4.12117e-05
-5.8932e-06
-3.92634e-05
-9.28348e-06
-3.64903e-05
-1.30663e-05
-3.27912e-05
-1.73069e-05
-2.8043e-05
-2.20424e-05
-2.17638e-05
-2.73577e-05
-1.30961e-05
-3.27677e-05
-3.67735e-05
-3.13694e-05
6.08681e-06
-3.14433e-05
3.02448e-06
-3.124e-05
-8.23493e-08
-3.07003e-05
-3.33444e-06
-2.97704e-05
-6.82327e-06
-2.84056e-05
-1.06483e-05
-2.65291e-05
-1.49427e-05
-2.40558e-05
-1.97799e-05
-2.08185e-05
-2.52795e-05
-1.64102e-05
-3.17659e-05
-9.98465e-06
-3.91929e-05
-4.6758e-05
-2.01374e-05
6.15345e-06
-2.01102e-05
2.99689e-06
-1.99408e-05
-2.52006e-07
-1.95982e-05
-3.67725e-06
-1.90572e-05
-7.36435e-06
-1.82906e-05
-1.14149e-05
-1.7257e-05
-1.59762e-05
-1.58925e-05
-2.11442e-05
-1.4022e-05
-2.71496e-05
-1.14757e-05
-3.4312e-05
-7.3934e-06
-4.3275e-05
-5.41512e-05
-9.2218e-06
6.06138e-06
-9.13242e-06
2.90745e-06
-9.01778e-06
-3.66663e-07
-8.86577e-06
-3.82924e-06
-8.67198e-06
-7.55802e-06
-8.434e-06
-1.16527e-05
-8.16825e-06
-1.62417e-05
-7.84156e-06
-2.14704e-05
-7.38575e-06
-2.76053e-05
-6.61198e-06
-3.50855e-05
-4.83147e-06
-4.50551e-05
-5.89827e-05
1.52929e-06
5.81151e-06
1.68849e-06
2.7485e-06
1.77186e-06
-4.49761e-07
1.77562e-06
-3.83266e-06
1.68092e-06
-7.46301e-06
1.45699e-06
-1.14284e-05
1.0615e-06
-1.58459e-05
4.66411e-07
-2.08751e-05
-3.28144e-07
-2.68104e-05
-1.22386e-06
-3.41894e-05
-1.82493e-06
-4.44541e-05
-6.08074e-05
1.221e-05
5.37539e-06
1.24788e-05
2.48009e-06
1.25872e-05
-5.57834e-07
1.25182e-05
-3.7632e-06
1.22306e-05
-7.17508e-06
1.16625e-05
-1.08599e-05
1.07275e-05
-1.49105e-05
9.32332e-06
-1.94706e-05
7.33786e-06
-2.48247e-05
4.71683e-06
-3.15683e-05
1.79496e-06
-4.15315e-05
-5.90122e-05
2.29677e-05
4.72333e-06
2.33886e-05
2.05954e-06
2.35838e-05
-7.52481e-07
2.35279e-05
-3.70685e-06
2.31627e-05
-6.80947e-06
2.23989e-05
-1.00958e-05
2.11034e-05
-1.36146e-05
1.90955e-05
-1.74625e-05
1.61281e-05
-2.1857e-05
1.19293e-05
-2.73689e-05
6.51828e-06
-3.612e-05
-5.24935e-05
3.40546e-05
3.88309e-06
3.4623e-05
1.49146e-06
3.49285e-05
-1.05754e-06
3.49456e-05
-3.72354e-06
3.46071e-05
-6.47063e-06
3.38065e-05
-9.29488e-06
3.23706e-05
-1.21785e-05
3.00477e-05
-1.51391e-05
2.64305e-05
-1.82394e-05
2.10207e-05
-2.19586e-05
1.29366e-05
-2.80354e-05
-3.95556e-05
4.57974e-05
2.99777e-06
4.64184e-05
8.70914e-07
4.67876e-05
-1.42628e-06
4.68829e-05
-3.8185e-06
4.66375e-05
-6.22486e-06
4.5943e-05
-8.59997e-06
4.46072e-05
-1.08423e-05
4.23502e-05
-1.28817e-05
3.86177e-05
-1.45062e-05
3.26721e-05
-1.60126e-05
2.19831e-05
-1.73447e-05
-1.7572e-05
5.8427e-05
2.3205e-06
5.89203e-05
3.77788e-07
5.92435e-05
-1.74913e-06
5.93742e-05
-3.9489e-06
5.92499e-05
-6.10019e-06
5.87733e-05
-8.12309e-06
5.77664e-05
-9.83496e-06
5.59857e-05
-1.11005e-05
5.29085e-05
-1.14285e-05
4.75784e-05
-1.06816e-05
3.62185e-05
-5.98492e-06
1.86479e-05
6.84842e-05
4.84708e-06
-7.28918e-05
6.77196e-05
2.83525e-06
6.64745e-05
2.53626e-06
6.61675e-05
2.53486e-06
6.66148e-05
3.10905e-06
6.74782e-05
3.89223e-06
6.84877e-05
4.64778e-06
6.94501e-05
5.24203e-06
7.02499e-05
5.53776e-06
7.08313e-05
5.45941e-06
7.12346e-05
4.83384e-06
3.77398e-06
7.14778e-05
8.86523e-05
3.90758e-06
-8.77138e-05
8.84499e-05
3.03726e-06
8.8015e-05
2.97052e-06
8.75417e-05
3.00766e-06
8.72423e-05
3.40803e-06
8.70876e-05
4.04663e-06
8.69803e-05
4.75489e-06
8.68219e-05
5.40019e-06
8.6541e-05
5.81836e-06
8.61181e-05
5.88223e-06
8.56341e-05
5.31759e-06
4.26902e-06
8.5139e-05
0.000102848
2.72546e-06
-0.000101665
0.000103418
2.46718e-06
0.000103717
2.67109e-06
0.000103746
2.97814e-06
0.000103578
3.57526e-06
0.000103223
4.40137e-06
0.000102658
5.31906e-06
0.000101866
6.192e-06
0.000100845
6.83853e-06
9.96745e-05
7.05258e-06
9.85197e-05
6.47236e-06
5.23252e-06
9.75568e-05
0.000115792
-0.000114945
1.87711e-06
0.000116359
1.89926e-06
0.000116657
2.37275e-06
0.000116632
3.00227e-06
0.000116269
3.93751e-06
0.000115561
5.10812e-06
0.00011452
6.35988e-06
0.000113195
7.51662e-06
0.000111667
8.36563e-06
0.000110138
8.58128e-06
0.000108879
7.73201e-06
0.000108352