/*--------------------------------*- C++ -*----------------------------------*\
| =========                 |                                                 |
| \\      /  F ield         | OpenFOAM: The Open Source CFD Toolbox           |
|  \\    /   O peration     | Version:  v1912                                 |
|   \\  /    A nd           | Website:  www.openfoam.com                      |
|    \\/     M anipulation  |                                                 |
\*---------------------------------------------------------------------------*/
FoamFile
{
    version     2.0;
    format      ascii;
    class       volVectorField;
    location    "250";
    object      U;
}
// * * * * * * * * * * * * * * * * * * * * * * * * * * * * * * * * * * * * * //

dimensions      [0 1 -1 0 0 0 0];


internalField   nonuniform List<vector> 
3072
(
(0.192406 2.22347 0)
(0.211368 1.92992 0)
(0.3083 1.7665 1.43846e-19)
(0.409655 1.65197 9.40163e-19)
(0.521887 1.64434 -2.15322e-18)
(0.752137 1.8228 9.3304e-19)
(1.45967 1.71732 2.69446e-19)
(2.53837 1.74981 1.45664e-19)
(2.96445 2.3385 -3.91138e-19)
(3.19368 2.54403 9.23435e-19)
(3.52468 2.76318 3.92454e-19)
(3.80437 2.74387 5.20524e-19)
(-0.448036 2.76477 -2.53951e-19)
(-0.235675 2.37394 -4.67365e-19)
(0.058828 2.4366 5.34215e-19)
(0.545382 2.51548 0)
(1.35899 2.57996 6.39525e-19)
(2.17087 2.9329 -7.83702e-19)
(2.71935 3.08862 0)
(2.96302 3.1329 0)
(3.03706 3.18494 0)
(3.10488 3.20154 7.44575e-19)
(3.2357 3.20586 -2.12501e-18)
(3.34386 3.19166 4.89229e-19)
(-0.339477 3.05985 1.64704e-19)
(0.12439 2.79027 0)
(0.781778 2.92241 0)
(1.54436 3.11686 -2.45294e-18)
(2.2067 3.24416 8.8315e-19)
(2.66236 3.2979 -1.89724e-18)
(2.92892 3.23376 2.01419e-18)
(3.09173 3.13577 0)
(3.15755 3.06866 0)
(3.23698 3.00014 -9.81333e-19)
(3.32722 2.93094 -9.38569e-19)
(3.41182 2.85476 3.13779e-18)
(-0.133286 3.33003 -1.56188e-18)
(0.458501 3.24115 -2.46615e-18)
(1.17048 3.39046 1.37484e-18)
(1.86235 3.4701 -1.3786e-18)
(2.37745 3.44492 3.48944e-18)
(2.68177 3.36318 -3.69832e-18)
(2.88227 3.24322 -1.9599e-18)
(2.99836 3.12861 -5.30029e-18)
(3.06044 3.03453 -1.42677e-19)
(3.12475 2.94695 2.67818e-18)
(3.18667 2.8595 3.05514e-18)
(3.25153 2.77387 -2.50839e-18)
(0.145626 3.48934 0)
(0.73919 3.52775 1.01107e-18)
(1.39277 3.6158 -1.92695e-18)
(1.98634 3.59414 2.95483e-18)
(2.38523 3.49493 5.15381e-19)
(2.63551 3.36052 1.81646e-18)
(2.77927 3.22042 1.96326e-18)
(2.86548 3.08598 1.7746e-18)
(2.92715 2.96882 -3.61265e-18)
(2.98822 2.86185 3.16954e-18)
(3.05028 2.76025 -4.31686e-18)
(3.1148 2.66298 5.81328e-18)
(0.372974 3.62855 -2.65556e-18)
(0.932011 3.73784 1.27607e-18)
(1.50894 3.75594 3.79533e-18)
(2.0062 3.66628 0)
(2.33535 3.51757 -5.26077e-18)
(2.5299 3.35554 5.77454e-18)
(2.649 3.19225 0)
(2.73123 3.04087 -4.37574e-18)
(2.79539 2.90622 3.79985e-18)
(2.85595 2.78437 0)
(2.91617 2.67176 2.16735e-19)
(2.97745 2.56644 3.53161e-18)
(0.543904 3.78347 0)
(1.05364 3.94158 -3.11985e-18)
(1.54634 3.8933 2.87373e-18)
(1.95784 3.75521 0)
(2.23113 3.56493 -3.63113e-18)
(2.39813 3.36862 5.43153e-19)
(2.50906 3.18047 5.22223e-18)
(2.59102 3.00897 4.73845e-18)
(2.65835 2.85566 -4.18439e-18)
(2.72058 2.71792 4.11083e-18)
(2.78094 2.59279 -3.5797e-18)
(2.84087 2.4781 -1.00651e-17)
(0.672106 3.9672 0)
(1.11872 4.16094 2.90716e-18)
(1.52576 4.05429 -4.8087e-18)
(1.86372 3.87303 4.75854e-18)
(2.09635 3.64137 0)
(2.25091 3.40738 -6.03503e-18)
(2.36096 3.18905 5.7298e-18)
(2.44652 2.99206 8.02886e-20)
(2.51836 2.81684 -9.2158e-18)
(2.58338 2.66101 -4.25566e-18)
(2.64467 2.52165 -2.19953e-19)
(2.70395 2.39617 7.59115e-18)
(0.73089 4.15412 0)
(1.14036 4.40239 -3.82847e-18)
(1.46121 4.23341 -5.71022e-18)
(1.73042 4.00537 -4.0965e-18)
(1.93317 3.73278 7.96649e-18)
(2.08412 3.46058 0)
(2.20008 3.20892 0)
(2.29325 2.98339 0)
(2.37156 2.78408 0)
(2.44062 2.6086 4.44873e-18)
(2.50351 2.45383 -4.40633e-18)
(2.56248 2.31663 4.1983e-18)
(0.80701 4.45086 0)
(1.11782 4.66006 3.52304e-18)
(1.32777 4.38447 -6.52745e-19)
(1.54782 4.09212 4.72107e-18)
(1.73366 3.78122 4.48566e-18)
(1.88787 3.47834 -7.07365e-18)
(2.01436 3.20065 0)
(2.11853 2.95268 -1.98674e-19)
(2.20599 2.73415 -1.65492e-17)
(2.28135 2.54279 0)
(2.34762 2.37559 1.00116e-17)
(2.4077 2.22892 -4.66168e-18)
(0.957353 4.57626 0)
(0.978093 4.68284 3.77867e-18)
(1.08928 4.32869 9.8254e-18)
(1.28416 3.982 -8.27068e-18)
(1.47213 3.6669 -1.13724e-17)
(1.63892 3.36544 1.77479e-17)
(1.78195 3.08989 -1.9402e-19)
(1.90252 2.84287 -6.73095e-18)
(2.00385 2.62383 5.46435e-18)
(2.09005 2.43124 -1.14002e-17)
(2.1637 2.26299 -1.56718e-17)
(2.22849 2.11563 1.56698e-17)
(0.389096 4.1837 -1.91857e-18)
(0.592492 4.12047 -1.26053e-17)
(0.73572 3.79169 2.39146e-18)
(0.937752 3.49742 0)
(1.1451 3.25821 0)
(1.33444 3.02494 3.29966e-19)
(1.49899 2.80373 1.81602e-17)
(1.63983 2.59832 1.11106e-17)
(1.75895 2.41033 0)
(1.86039 2.24135 1.02541e-17)
(1.94594 2.09163 0)
(2.02014 1.95889 4.23578e-19)
(4.07067 2.7294 1.0475e-18)
(4.25431 2.59024 -7.30331e-19)
(4.39651 2.44653 -6.06173e-20)
(4.44621 2.24662 -4.90009e-19)
(4.45537 2.03919 -2.3123e-19)
(4.37274 1.80735 0)
(4.22779 1.57838 0)
(3.9907 1.34636 8.34743e-19)
(3.68168 1.12065 -9.82741e-19)
(3.24882 0.864471 0)
(2.78675 0.46956 0)
(2.65109 -0.0899623 -4.81688e-20)
(3.46944 3.13829 1.28298e-18)
(3.5905 3.04521 0)
(3.70941 2.91834 -8.99853e-19)
(3.81572 2.75228 3.56528e-19)
(3.89009 2.57236 2.41961e-19)
(3.91981 2.38719 2.54544e-18)
(3.89899 2.20572 -4.13849e-18)
(3.82241 2.04448 6.74132e-19)
(3.68981 1.9156 0)
(3.39797 1.79674 0)
(3.11497 1.67717 0)
(3.21336 1.27315 7.11649e-19)
(3.50153 2.76856 1.21635e-18)
(3.59155 2.66902 -3.33252e-18)
(3.6731 2.55935 9.25981e-19)
(3.73736 2.44521 2.2832e-18)
(3.77628 2.32936 -2.38664e-18)
(3.78486 2.22193 0)
(3.75993 2.13189 0)
(3.70099 2.06786 -1.93225e-19)
(3.61373 2.03824 1.06352e-18)
(3.45553 2.02987 0)
(3.21223 2.02728 0)
(3.39643 1.9311 -4.66747e-19)
(3.32328 2.68573 2.74641e-19)
(3.39572 2.59176 3.38979e-18)
(3.46282 2.49353 2.41152e-18)
(3.51838 2.39534 -2.42958e-18)
(3.5579 2.30297 0)
(3.57892 2.22344 1.48599e-18)
(3.57915 2.1641 0)
(3.56023 2.13239 2.53377e-18)
(3.52512 2.13574 -8.06256e-19)
(3.44871 2.1919 0)
(3.26113 2.28572 -5.23718e-19)
(3.55021 2.39113 6.2346e-19)
(3.18124 2.56754 -2.40965e-18)
(3.24648 2.47281 0)
(3.30721 2.38025 0)
(3.36024 2.29329 0)
(3.40385 2.21638 0)
(3.43737 2.15515 -2.67274e-18)
(3.45966 2.11878 -1.16636e-19)
(3.47201 2.11139 -1.25818e-18)
(3.47963 2.14443 0)
(3.46895 2.23171 -9.91128e-19)
(3.34798 2.38405 4.84398e-19)
(3.7513 2.60801 -1.62374e-19)
(3.03937 2.4666 -1.92793e-19)
(3.10044 2.37153 -5.95819e-18)
(3.15907 2.28224 2.84955e-18)
(3.21398 2.20129 4.2424e-21)
(3.26491 2.13229 1.88248e-19)
(3.31225 2.08002 4.25251e-18)
(3.35767 2.05054 -1.29506e-19)
(3.40368 2.05033 -4.85318e-18)
(3.45278 2.09055 -1.96448e-18)
(3.50819 2.18793 1.00771e-18)
(3.46091 2.38222 -1.2661e-18)
(3.91999 2.72527 -5.18841e-19)
(2.9006 2.37213 9.66681e-18)
(2.95988 2.27402 3.18265e-18)
(3.01846 2.18415 0)
(3.07654 2.10418 0)
(3.13518 2.03674 1.82422e-19)
(3.19623 1.98552 -3.13442e-18)
(3.26257 1.95537 4.97038e-18)
(3.33818 1.95217 -1.13925e-19)
(3.42675 1.98626 1.7134e-18)
(3.53575 2.07623 0)
(3.56906 2.26535 -2.29215e-19)
(4.06779 2.6799 -7.86199e-20)
(2.76209 2.28255 -3.64416e-18)
(2.81989 2.17931 -3.37275e-18)
(2.8783 2.08605 3.63099e-18)
(2.93871 2.00344 -3.44143e-18)
(3.00341 1.93299 -4.78737e-21)
(3.07552 1.87721 6.99292e-18)
(3.15938 1.83953 -3.26104e-18)
(3.26094 1.82474 1.85772e-18)
(3.38602 1.84179 0)
(3.54768 1.9104 1.13854e-18)
(3.66637 2.08457 5.89277e-19)
(4.17397 2.53525 -8.99287e-19)
(2.61908 2.19434 4.0577e-18)
(2.67505 2.08462 -3.94135e-18)
(2.73231 1.98621 -3.70871e-18)
(2.79326 1.89862 -7.76903e-18)
(2.86117 1.82204 7.56453e-18)
(2.94027 1.75772 -7.36079e-18)
(3.03625 1.7073 0)
(3.15721 1.67376 -1.80547e-18)
(3.31175 1.66331 0)
(3.51969 1.69399 0)
(3.72256 1.82802 0)
(4.22751 2.23927 4.3427e-19)
(2.46361 2.09973 4.50614e-18)
(2.518 1.98464 -9.03711e-18)
(2.57365 1.88155 8.8519e-18)
(2.63359 1.78881 8.56243e-18)
(2.7018 1.70532 4.17616e-18)
(2.78306 1.63071 0)
(2.88445 1.56466 0)
(3.01542 1.50745 4.25265e-18)
(3.18836 1.46117 0)
(3.43353 1.4407 -1.21348e-18)
(3.70176 1.49749 7.92212e-19)
(4.21127 1.78957 -1.27631e-18)
(2.28651 1.98645 -1.02127e-17)
(2.34127 1.87104 9.44615e-18)
(2.39617 1.76709 -9.25656e-18)
(2.45453 1.67194 -2.33921e-17)
(2.52091 1.58346 -2.14628e-19)
(2.59963 1.49974 1.25304e-19)
(2.69893 1.41828 -4.6277e-18)
(2.8281 1.33618 -4.32166e-18)
(3.00299 1.249 0)
(3.26337 1.16604 3.72221e-18)
(3.56967 1.09327 9.17673e-19)
(4.07157 1.04366 -1.80433e-18)
(2.08415 1.84198 -4.20781e-19)
(2.14227 1.7354 0)
(2.19814 1.63762 0)
(2.255 1.54555 4.47855e-18)
(2.3176 1.45646 1.38254e-17)
(2.38959 1.36782 -4.55475e-18)
(2.47896 1.27513 -1.93084e-19)
(2.59295 1.17295 -2.42828e-18)
(2.74946 1.04802 -2.33377e-18)
(2.977 0.899971 -2.36649e-18)
(3.29319 0.667358 0)
(3.66397 -0.0641736 2.41068e-18)
(2.22496 -0.189284 -4.51728e-22)
(1.9318 -0.20916 0)
(1.76736 -0.306991 -1.43884e-19)
(1.65267 -0.408695 0)
(1.64432 -0.521211 -1.08264e-18)
(1.82232 -0.750307 9.38734e-19)
(1.71861 -1.45521 0)
(1.74639 -2.53496 1.16053e-19)
(2.33599 -2.96432 -3.76955e-19)
(2.54192 -3.19205 3.60949e-19)
(2.76137 -3.52374 -5.80306e-19)
(2.74224 -3.80291 -5.20817e-19)
(2.76456 0.449837 -2.7073e-19)
(2.37392 0.236718 -1.17388e-19)
(2.43682 -0.0582638 5.28252e-19)
(2.51541 -0.544151 0)
(2.57909 -1.35628 -6.37768e-19)
(2.93103 -2.16881 3.4228e-19)
(3.08816 -2.71857 0)
(3.13169 -2.96309 1.07882e-18)
(3.18397 -3.03753 -3.09405e-18)
(3.20035 -3.10466 1.85394e-18)
(3.20473 -3.23555 1.06247e-18)
(3.19058 -3.34343 -3.37136e-18)
(3.05981 0.340161 -1.6423e-19)
(2.79069 -0.123251 0)
(2.92263 -0.779997 -1.61985e-18)
(3.11638 -1.54201 0)
(3.24389 -2.20477 0)
(3.29759 -2.66117 -8.30592e-19)
(3.23392 -2.92829 4.38979e-18)
(3.13552 -3.09154 -3.17985e-18)
(3.06821 -3.15756 9.33809e-19)
(2.99956 -3.23678 0)
(2.93027 -3.32704 2.38705e-18)
(2.85407 -3.41155 -1.33384e-18)
(3.33014 0.134243 9.78991e-19)
(3.24133 -0.456833 1.37089e-18)
(3.39053 -1.1685 1.02405e-18)
(3.47014 -1.86037 2.07684e-18)
(3.44517 -2.37613 -1.62963e-18)
(3.3634 -2.68106 -1.35009e-18)
(3.24343 -2.88183 0)
(3.12856 -2.99824 0)
(3.03433 -3.0604 1.70859e-18)
(2.94665 -3.12465 0)
(2.85912 -3.1866 3.72007e-19)
(2.77342 -3.25138 1.07865e-18)
(3.48943 -0.144904 1.82817e-18)
(3.52785 -0.737726 -8.14718e-19)
(3.61595 -1.391 -1.92906e-18)
(3.5945 -1.98476 0)
(3.49543 -2.38423 0)
(3.36091 -2.63493 2.39895e-18)
(3.22076 -2.779 0)
(3.08616 -2.86536 -4.12538e-18)
(2.96886 -2.92709 -1.69758e-18)
(2.86179 -2.98816 3.17242e-18)
(2.7601 -3.05022 -4.32078e-18)
(2.66275 -3.11472 2.77069e-18)
(3.6286 -0.372194 -1.45707e-18)
(3.73798 -0.930735 -1.1285e-18)
(3.75628 -1.50744 1.66324e-18)
(3.66682 -2.00494 2.52664e-19)
(3.51819 -2.33454 2.64386e-18)
(3.3561 -2.52945 -5.56873e-18)
(3.19274 -2.64876 5.047e-18)
(3.04123 -2.73112 4.42649e-19)
(2.90646 -2.79535 0)
(2.7845 -2.85594 0)
(2.6718 -2.91618 6.80212e-18)
(2.56639 -2.97746 3.20436e-20)
(3.78356 -0.543233 -5.39886e-20)
(3.94182 -1.05258 -1.73184e-18)
(3.8938 -1.54516 0)
(3.75593 -1.95688 -3.61385e-18)
(3.5657 -2.23053 3.84178e-18)
(3.36935 -2.39778 9.46733e-18)
(3.1811 -2.50887 5.70369e-18)
(3.00949 -2.59095 6.57847e-19)
(2.85607 -2.65835 -8.75689e-18)
(2.71821 -2.72063 3.85437e-18)
(2.59299 -2.78102 4.07972e-18)
(2.47821 -2.84098 2.04809e-19)
(3.96732 -0.671625 1.86755e-19)
(4.1613 -1.11792 2.90933e-18)
(4.05492 -1.52491 0)
(3.87387 -1.86302 -4.76214e-18)
(3.64227 -2.0959 -3.49236e-18)
(3.40823 -2.25065 5.2977e-19)
(3.18981 -2.36084 -1.09244e-17)
(2.99273 -2.4465 3.38178e-19)
(2.8174 -2.51841 -2.33412e-19)
(2.66146 -2.5835 4.47277e-18)
(2.522 -2.64483 -3.61288e-18)
(2.39643 -2.70413 1.85616e-19)
(4.15425 -0.730658 -3.58198e-18)
(4.40279 -1.13989 1.55344e-18)
(4.23404 -1.46067 -8.31566e-18)
(4.00622 -1.72995 4.09858e-18)
(3.73372 -1.93284 0)
(3.46151 -2.08392 0)
(3.20979 -2.20001 6.21787e-18)
(2.98417 -2.29327 1.10681e-17)
(2.78475 -2.37166 -4.97145e-18)
(2.60916 -2.44078 -4.45212e-18)
(2.4543 -2.50371 -4.21361e-18)
(2.317 -2.56273 0)
(4.45098 -0.807073 6.88503e-20)
(4.6604 -1.11742 5.34111e-18)
(4.38496 -1.32738 1.03639e-17)
(4.09283 -1.54747 0)
(3.78205 -1.7334 7.90985e-18)
(3.47921 -1.88771 0)
(3.2015 -2.01429 2.91394e-19)
(2.95346 -2.11854 -5.50624e-18)
(2.73486 -2.20608 5.76867e-18)
(2.54341 -2.28151 0)
(2.37611 -2.34783 0)
(2.22934 -2.40795 -9.60971e-18)
(4.57611 -0.957416 -6.8505e-18)
(4.68289 -0.978012 3.77631e-18)
(4.3289 -1.0891 5.38098e-19)
(3.98243 -1.28393 -9.07461e-18)
(3.66746 -1.47189 -3.54268e-18)
(3.36608 -1.63872 -3.55347e-18)
(3.09056 -1.78182 -6.79562e-18)
(2.84353 -1.90247 -1.88763e-17)
(2.62446 -2.00387 -5.46691e-18)
(2.43181 -2.09014 -1.14065e-17)
(2.26349 -2.16385 1.09273e-17)
(2.11605 -2.22869 9.98702e-18)
(4.18347 -0.389016 3.66907e-18)
(4.12027 -0.592395 -1.45106e-18)
(3.79157 -0.735564 3.47855e-19)
(3.49744 -0.937524 7.46074e-18)
(3.25839 -1.14484 0)
(3.02525 -1.3342 -6.59974e-18)
(2.80413 -1.4988 5.86607e-18)
(2.59876 -1.63971 5.18834e-18)
(2.41078 -1.7589 -1.65638e-17)
(2.24179 -1.8604 1.02569e-17)
(2.09202 -1.946 -9.96074e-18)
(1.95924 -2.02025 0)
(2.72798 -4.06958 -7.68029e-19)
(2.58896 -4.25299 1.88564e-18)
(2.44542 -4.39543 -1.16241e-18)
(2.24564 -4.44503 -5.53984e-19)
(2.03838 -4.45437 1.81202e-19)
(1.80667 -4.37171 4.8203e-20)
(1.57782 -4.22693 -1.00413e-19)
(1.34593 -3.98988 -2.76956e-19)
(1.12027 -3.68105 -9.82328e-19)
(0.864172 -3.24832 0)
(0.469174 -2.78639 0)
(-0.0898448 -2.65087 -4.81512e-20)
(3.1373 -3.46898 -2.75549e-20)
(3.04428 -3.58992 1.86229e-18)
(2.9175 -3.70879 -8.99866e-19)
(2.75153 -3.81503 0)
(2.57167 -3.88941 1.54352e-18)
(2.38657 -3.91914 0)
(2.20516 -3.89837 1.23141e-18)
(2.04396 -3.82184 2.2379e-18)
(1.91513 -3.68932 -1.92214e-18)
(1.79629 -3.3976 0)
(1.67668 -3.11469 0)
(1.27231 -3.21327 -1.34197e-20)
(2.76784 -3.50121 8.51621e-19)
(2.66831 -3.59116 -8.05365e-19)
(2.55866 -3.67268 9.26687e-19)
(2.44456 -3.73692 0)
(2.32874 -3.77585 -1.05953e-18)
(2.22134 -3.78444 2.76666e-18)
(2.13133 -3.75954 -3.98527e-18)
(2.06732 -3.70064 -4.74654e-18)
(2.0377 -3.61346 3.00376e-18)
(2.02931 -3.45535 0)
(2.02668 -3.21211 5.74564e-19)
(1.93041 -3.39648 1.54111e-19)
(2.68524 -3.32309 1.03305e-18)
(2.59125 -3.39548 -2.35447e-18)
(2.49301 -3.46256 2.41331e-18)
(2.39481 -3.51811 -2.43129e-18)
(2.30245 -3.55763 0)
(2.22291 -3.57867 1.48691e-18)
(2.16356 -3.57891 1.16503e-18)
(2.13184 -3.56004 7.13384e-19)
(2.13518 -3.52496 -1.63103e-18)
(2.1913 -3.4486 0)
(2.28507 -3.26104 -3.49149e-19)
(2.39025 -3.55021 5.63949e-19)
(2.56725 -3.18114 2.69305e-18)
(2.47247 -3.24637 -1.42345e-18)
(2.37988 -3.30709 0)
(2.29289 -3.36012 0)
(2.21595 -3.40373 1.44289e-18)
(2.15468 -3.43726 -1.22643e-18)
(2.11828 -3.45957 -2.13433e-19)
(2.11086 -3.47194 0)
(2.14386 -3.47959 -8.18671e-19)
(2.23111 -3.46892 9.91515e-19)
(2.38339 -3.34797 -1.05507e-18)
(2.60719 -3.75138 -2.57627e-19)
(2.46648 -3.03938 -5.93206e-18)
(2.37135 -3.10046 2.87994e-18)
(2.282 -3.15909 5.88833e-18)
(2.201 -3.214 4.23139e-21)
(2.13195 -3.26494 -7.23347e-18)
(2.07964 -3.31228 -3.10726e-18)
(2.05011 -3.3577 -2.10643e-19)
(2.04985 -3.40372 0)
(2.09002 -3.45282 0)
(2.18735 -3.50823 -1.00806e-18)
(2.38155 -3.46093 -7.3561e-19)
(2.72446 -3.92007 2.27408e-19)
(2.37217 -2.90073 3.30057e-18)
(2.27398 -2.96001 -6.56554e-18)
(2.18404 -3.0186 -2.95515e-18)
(2.10401 -3.07668 -1.65269e-19)
(2.0365 -3.13533 2.92562e-18)
(1.98521 -3.19638 2.93763e-18)
(1.955 -3.26272 1.67867e-18)
(1.95174 -3.33832 1.65794e-18)
(1.98577 -3.42688 -1.85451e-18)
(2.07568 -3.53586 0)
(2.26474 -3.56913 1.19423e-18)
(2.67918 -4.0679 -3.50486e-19)
(2.28272 -2.7623 0)
(2.17939 -2.82012 3.37565e-18)
(2.08605 -2.87854 0)
(2.00336 -2.93895 -1.71983e-19)
(1.93283 -3.00365 -4.7671e-21)
(1.87698 -3.07576 6.99863e-18)
(1.83922 -3.15962 -1.54152e-18)
(1.82437 -3.26116 -3.62689e-18)
(1.84135 -3.38622 -2.00887e-18)
(1.9099 -3.54785 1.13908e-18)
(2.08401 -3.66649 -2.23454e-18)
(2.53462 -4.17407 1.14671e-18)
(2.19462 -2.61935 4.06116e-18)
(2.0848 -2.67533 -3.94477e-18)
(1.9863 -2.73261 -4.00792e-18)
(1.89862 -2.79357 3.95348e-18)
(1.82196 -2.86147 3.79205e-18)
(1.75755 -2.94057 -1.12761e-17)
(1.70706 -3.03654 0)
(1.67343 -3.15748 1.80676e-18)
(1.66292 -3.312 1.8801e-18)
(1.69354 -3.5199 0)
(1.82753 -3.72272 2.76436e-18)
(2.23875 -4.22763 -2.06296e-18)
(2.10006 -2.46389 0)
(1.98487 -2.5183 -9.04457e-18)
(1.8817 -2.57396 -4.70235e-18)
(1.78886 -2.63391 -8.33714e-18)
(1.70529 -2.70212 4.17965e-18)
(1.6306 -2.78338 4.00962e-18)
(1.56447 -2.88477 0)
(1.50718 -3.01572 0)
(1.46082 -3.18863 0)
(1.44031 -3.43378 0)
(1.49708 -3.70195 -7.91638e-19)
(1.78917 -4.21138 -9.98115e-20)
(1.98678 -2.28674 4.98971e-18)
(1.87129 -2.34153 4.58936e-18)
(1.76725 -2.39644 1.90265e-17)
(1.67202 -2.45482 4.90309e-18)
(1.58346 -2.5212 1.87066e-17)
(1.49966 -2.59993 -4.54655e-18)
(1.41811 -2.69923 -4.63119e-18)
(1.33594 -2.8284 0)
(1.24869 -3.00327 -4.56652e-18)
(1.16569 -3.26363 -2.47231e-18)
(1.09292 -3.56987 -1.85557e-18)
(1.04341 -4.07169 -1.12474e-25)
(1.84226 -2.08429 0)
(1.73561 -2.14244 0)
(1.63775 -2.19834 -1.89741e-17)
(1.54562 -2.25522 -1.392e-17)
(1.45646 -2.31785 -4.47802e-18)
(1.36774 -2.38985 0)
(1.27498 -2.47924 4.58462e-18)
(1.17273 -2.59325 0)
(1.04773 -2.74975 -1.83371e-19)
(0.899643 -2.97727 2.36755e-18)
(0.667087 -3.29342 6.78482e-19)
(-0.0642303 -3.66416 4.78049e-18)
(-0.189354 -2.22488 9.50854e-20)
(-0.209029 -1.93199 2.20249e-19)
(-0.307214 -1.76777 -2.21382e-19)
(-0.408942 -1.65286 5.35233e-20)
(-0.521407 -1.64545 0)
(-0.753032 -1.82397 1.33859e-19)
(-1.46264 -1.71686 0)
(-2.54006 -1.75191 4.93991e-19)
(-2.96411 -2.33979 1.12521e-18)
(-3.19386 -2.54483 -1.39356e-19)
(-3.52445 -2.76364 -5.35874e-19)
(-3.80419 -2.74413 1.09287e-18)
(0.449713 -2.76468 4.28656e-19)
(0.236452 -2.37403 -4.62241e-19)
(-0.0588004 -2.43763 5.28521e-19)
(-0.546669 -2.516 -7.1205e-20)
(-1.3617 -2.58137 -6.34493e-19)
(-2.17208 -2.93478 -1.33874e-19)
(-2.71939 -3.08939 -7.74853e-19)
(-2.96234 -3.13385 -2.08436e-18)
(-3.03616 -3.18549 3.21017e-18)
(-3.10436 -3.20199 -7.1578e-19)
(-3.23515 -3.20611 7.65236e-19)
(-3.34344 -3.19174 5.21647e-19)
(0.339394 -3.06002 -3.28175e-19)
(-0.125411 -2.79116 0)
(-0.783633 -2.92399 0)
(-1.54606 -3.11876 -1.00738e-18)
(-2.20695 -3.24543 0)
(-2.66173 -3.29884 -1.06572e-18)
(-2.92809 -3.23423 7.69758e-19)
(-3.09083 -3.13624 2.50009e-18)
(-3.15667 -3.06907 -1.1688e-18)
(-3.23629 -3.00048 -1.80977e-18)
(-3.32659 -2.9312 -3.32205e-18)
(-3.41127 -2.85493 3.13486e-18)
(0.132572 -3.33014 -1.96074e-18)
(-0.459643 -3.24211 -1.36951e-18)
(-1.17134 -3.39147 1.78214e-18)
(-1.86242 -3.47091 6.96792e-19)
(-2.37672 -3.44541 0)
(-2.68072 -3.36362 -4.3611e-18)
(-2.88127 -3.24362 3.18463e-18)
(-2.99737 -3.12898 0)
(-3.05957 -3.03487 2.58843e-18)
(-3.12403 -2.94723 -3.83448e-18)
(-3.18605 -2.85971 2.68178e-18)
(-3.25102 -2.77402 3.50644e-19)
(-0.147001 -3.489 2.6922e-18)
(-0.740387 -3.52821 2.43305e-18)
(-1.39326 -3.61613 5.73005e-19)
(-1.98596 -3.59436 0)
(-2.3843 -3.49515 -2.8517e-18)
(-2.63446 -3.36083 3.85124e-18)
(-2.77824 -3.22072 0)
(-2.86458 -3.08629 -2.23774e-18)
(-2.92638 -2.96911 -2.03717e-18)
(-2.98759 -2.86211 3.16747e-18)
(-3.04975 -2.76046 0)
(-3.11436 -2.66314 -2.50203e-18)
(-0.374381 -3.62803 1.19772e-18)
(-0.933044 -3.73794 4.90099e-19)
(-1.50923 -3.75591 -1.66055e-18)
(-2.00571 -3.66628 -7.23016e-18)
(-2.33446 -3.51769 -1.87417e-19)
(-2.52893 -3.35577 5.772e-18)
(-2.64813 -3.19253 0)
(-2.73047 -3.04117 6.63086e-18)
(-2.79475 -2.90652 -3.89258e-18)
(-2.85543 -2.78463 3.47865e-18)
(-2.91574 -2.67199 2.16649e-19)
(-2.97708 -2.56662 -3.19879e-20)
(-0.545274 -3.78285 -1.35794e-18)
(-1.05452 -3.94148 -1.16722e-18)
(-1.54651 -3.89306 0)
(-1.95738 -3.7551 7.72375e-18)
(-2.23038 -3.56499 -1.08967e-17)
(-2.39736 -3.36883 -1.75974e-19)
(-2.50837 -3.18075 -1.09121e-17)
(-2.59042 -3.00929 3.90973e-19)
(-2.65785 -2.85597 -4.18222e-18)
(-2.72017 -2.7182 -4.10893e-18)
(-2.7806 -2.59303 4.0741e-18)
(-2.84059 -2.4783 -3.41297e-18)
(-0.67314 -3.96658 -1.19187e-19)
(-1.11942 -4.16068 -1.5415e-18)
(-1.52588 -4.05391 0)
(-1.86337 -3.8728 4.75408e-18)
(-2.0958 -3.64137 3.29915e-18)
(-2.25034 -3.40755 2.85438e-18)
(-2.36045 -3.18933 -4.15635e-19)
(-2.44608 -2.99238 -8.02999e-20)
(-2.51799 -2.81716 -4.89532e-18)
(-2.58308 -2.66131 -4.71912e-19)
(-2.64442 -2.52191 1.97378e-19)
(-2.70373 -2.3964 0)
(-0.731579 -4.15352 2.22017e-18)
(-1.14081 -4.40195 0)
(-1.46129 -4.2329 0)
(-1.73022 -4.00502 -4.09394e-18)
(-1.93281 -3.73267 3.52957e-18)
(-2.08373 -3.46067 -6.95911e-18)
(-2.19971 -3.20915 0)
(-2.29292 -2.98368 5.4181e-18)
(-2.37128 -2.78439 -2.16526e-19)
(-2.44038 -2.60889 4.44693e-18)
(-2.50331 -2.4541 -4.567e-18)
(-2.56232 -2.31687 8.71359e-18)
(-0.807248 -4.45015 4.79736e-18)
(-1.11819 -4.65953 -1.82443e-18)
(-1.3279 -4.3839 -5.50706e-18)
(-1.54775 -4.09168 -9.08532e-18)
(-1.73346 -3.78099 0)
(-1.88761 -3.47831 6.45312e-18)
(-2.01409 -3.20077 -1.2677e-17)
(-2.11827 -2.95289 5.54691e-18)
(-2.20576 -2.7344 5.76254e-18)
(-2.28115 -2.54306 0)
(-2.34745 -2.37584 -5.32842e-18)
(-2.40757 -2.22915 -8.9902e-18)
(-0.957232 -4.57592 -6.80624e-18)
(-0.978257 -4.68248 1.71789e-18)
(-1.08944 -4.32826 4.64316e-18)
(-1.2842 -3.9816 3.8839e-18)
(-1.47205 -3.66664 -4.13608e-20)
(-1.63875 -3.36533 -1.09308e-17)
(-1.78175 -3.08991 1.29514e-17)
(-1.90231 -2.843 2.48292e-17)
(-2.00365 -2.62402 -1.7153e-17)
(-2.08987 -2.43146 -1.13953e-17)
(-2.16355 -2.26322 1.03399e-17)
(-2.22838 -2.11585 0)
(-0.388865 -4.18357 5.67809e-18)
(-0.592573 -4.12043 1.90593e-18)
(-0.735896 -3.79153 2.04342e-18)
(-0.937855 -3.49722 7.98864e-18)
(-1.1451 -3.25806 0)
(-1.33436 -3.02487 6.26741e-18)
(-1.49886 -2.80376 -1.2292e-17)
(-1.63968 -2.59844 -5.41816e-18)
(-1.75881 -2.4105 -5.46162e-18)
(-1.86026 -2.24157 1.02514e-17)
(-1.94584 -2.09186 5.29029e-18)
(-2.02007 -1.95913 1.51275e-17)
(-4.07028 -2.72948 2.54705e-19)
(-4.2539 -2.59023 4.70102e-19)
(-4.396 -2.44643 5.00952e-19)
(-4.44569 -2.24648 -1.25543e-18)
(-4.45484 -2.03901 4.13012e-19)
(-4.37222 -1.80716 0)
(-4.22729 -1.57817 -5.01142e-19)
(-3.99026 -1.34617 3.78849e-19)
(-3.68131 -1.12044 0)
(-3.24857 -0.864265 1.01996e-19)
(-2.78658 -0.46933 0)
(-2.65099 0.0899102 -3.77843e-19)
(-3.46902 -3.13824 -3.64802e-18)
(-3.59011 -3.04506 2.74928e-18)
(-3.70901 -2.91813 2.02859e-18)
(-3.81532 -2.75204 -8.15632e-19)
(-3.88968 -2.57211 0)
(-3.91941 -2.38693 0)
(-3.89861 -2.20546 1.43344e-18)
(-3.82207 -2.04421 -1.5733e-18)
(-3.68951 -1.91532 0)
(-3.39778 -1.79645 5.90649e-19)
(-3.11482 -1.67686 -6.81394e-20)
(-3.21324 -1.2728 -1.08553e-18)
(-3.50104 -2.76865 1.27609e-18)
(-3.5911 -2.66904 -2.16522e-18)
(-3.67268 -2.55931 0)
(-3.73697 -2.44512 -2.2998e-18)
(-3.77593 -2.32922 -2.47395e-18)
(-3.78454 -2.22175 5.43358e-18)
(-3.75966 -2.13167 -4.86786e-18)
(-3.70076 -2.06759 0)
(-3.61355 -2.03792 0)
(-3.45541 -2.02951 0)
(-3.21217 -2.0269 -5.23807e-19)
(-3.39636 -1.93069 1.58482e-19)
(-3.32284 -2.68581 -1.03142e-18)
(-3.39534 -2.59178 -3.21683e-19)
(-3.46249 -2.49349 0)
(-3.51809 -2.39525 -3.02905e-19)
(-3.55765 -2.30283 0)
(-3.5787 -2.22325 0)
(-3.57896 -2.16386 1.30796e-18)
(-3.56007 -2.13211 -1.61913e-18)
(-3.52499 -2.13541 1.77979e-18)
(-3.44861 -2.19151 0)
(-3.26109 -2.2853 -5.2376e-19)
(-3.55013 -2.39064 -6.23548e-19)
(-3.18087 -2.56765 5.60276e-18)
(-3.24617 -2.47286 -1.42154e-18)
(-3.30694 -2.38026 2.59948e-18)
(-3.36001 -2.29324 1.19589e-18)
(-3.40365 -2.21627 -4.1012e-18)
(-3.4372 -2.15498 0)
(-3.45952 -2.11855 -1.42642e-18)
(-3.4719 -2.1111 0)
(-3.47955 -2.14408 0)
(-3.46889 -2.23131 9.90983e-19)
(-3.34798 -2.3836 3.57301e-20)
(-3.75124 -2.60749 7.06346e-19)
(-3.03907 -2.46673 -2.75783e-18)
(-3.10018 -2.37161 -2.0301e-19)
(-3.15886 -2.28226 0)
(-3.21381 -2.20126 0)
(-3.26477 -2.1322 -4.57147e-18)
(-3.31213 -2.07987 2.91438e-18)
(-3.35757 -2.05033 3.01391e-18)
(-3.40362 -2.05005 1.59312e-18)
(-3.45274 -2.09021 -3.81079e-18)
(-3.50816 -2.18753 -1.00765e-18)
(-3.46093 -2.38175 0)
(-3.91995 -2.72474 8.10459e-19)
(-2.90037 -2.37229 -6.76465e-18)
(-2.95969 -2.27413 2.82479e-18)
(-3.0183 -2.18421 3.14184e-18)
(-3.07641 -2.10419 1.68478e-19)
(-3.13509 -2.03668 -3.52197e-19)
(-3.19616 -1.98539 -3.30422e-18)
(-3.26253 -1.95518 -4.8772e-18)
(-3.33816 -1.9519 -1.77263e-18)
(-3.42675 -1.98591 1.71287e-18)
(-3.53576 -2.07583 0)
(-3.5691 -2.2649 2.01859e-18)
(-4.06776 -2.67938 -5.20264e-19)
(-2.76192 -2.28273 7.12062e-18)
(-2.81975 -2.17944 -3.87223e-18)
(-2.87819 -2.08613 -3.62961e-18)
(-2.93864 -2.00347 -6.70844e-18)
(-3.00336 -1.93295 6.66492e-18)
(-3.0755 -1.87711 -1.74588e-19)
(-3.15939 -1.83935 1.031e-17)
(-3.26097 -1.82449 1.66551e-18)
(-3.38607 -1.84146 2.007e-18)
(-3.54773 -1.91 0)
(-3.66643 -2.08413 -1.39006e-18)
(-4.17397 -2.53475 -6.78035e-19)
(-2.61895 -2.19454 0)
(-2.67495 -2.08478 3.78175e-18)
(-2.73225 -1.98632 3.70733e-18)
(-2.79323 -1.89867 -3.81753e-18)
(-2.86117 -1.82203 -1.43161e-19)
(-2.94031 -1.75764 -3.90447e-18)
(-3.03631 -1.70715 -3.5901e-18)
(-3.15729 -1.67352 0)
(-3.31185 -1.66299 -1.87828e-18)
(-3.51978 -1.69361 -1.1736e-18)
(-3.72265 -1.82761 4.51519e-18)
(-4.22754 -2.23882 -9.86156e-19)
(-2.46351 -2.09993 0)
(-2.51793 -1.9848 0)
(-2.57362 -1.88168 0)
(-2.6336 -1.78888 -1.29516e-17)
(-2.70185 -1.70533 8.32372e-18)
(-2.78315 -1.63066 8.14448e-18)
(-2.88458 -1.56454 0)
(-3.01557 -1.50725 -4.25084e-18)
(-3.18851 -1.46088 0)
(-3.43367 -1.44036 -2.4669e-18)
(-3.70188 -1.49712 -7.9127e-19)
(-4.21133 -1.78919 -1.27647e-18)
(-2.28643 -1.98665 0)
(-2.34124 -1.87121 0)
(-2.39618 -1.76722 9.75145e-18)
(-2.45459 -1.67203 1.37923e-17)
(-2.52102 -1.58349 3.62482e-19)
(-2.59979 -1.49971 4.66625e-18)
(-2.69912 -1.41817 -2.27653e-18)
(-2.82833 -1.336 6.53304e-18)
(-3.00322 -1.24875 4.56149e-18)
(-3.26357 -1.16573 2.31267e-18)
(-3.56982 -1.09294 -1.85467e-18)
(-4.07167 -1.04339 -1.97654e-18)
(-2.08412 -1.84219 0)
(-2.14229 -1.73558 0)
(-2.19822 -1.63776 -9.27617e-18)
(-2.25513 -1.54565 4.88126e-18)
(-2.31779 -1.4565 -4.47511e-18)
(-2.38982 -1.36781 -4.55352e-18)
(-2.47924 -1.27505 4.77467e-18)
(-2.59327 -1.1728 0)
(-2.74979 -1.0478 -4.60513e-18)
(-2.9773 -0.899714 -2.44998e-18)
(-3.29342 -0.667094 2.32907e-18)
(-3.66413 0.0642992 -4.7809e-18)
(-2.22495 0.189218 9.78904e-20)
(-1.93173 0.209103 0)
(-1.76722 0.306912 0)
(-1.65256 0.408612 7.58919e-19)
(-1.64416 0.521127 -1.08681e-18)
(-1.82222 0.75013 0)
(-1.71861 1.45517 0)
(-1.74633 2.53536 4.95014e-19)
(-2.33621 2.96487 8.00962e-19)
(-2.54221 3.19259 4.48705e-19)
(-2.76178 3.52437 -1.11211e-18)
(-2.74263 3.80355 8.49793e-19)
(-2.7646 -0.449966 -5.83802e-19)
(-2.37381 -0.236824 0)
(-2.43661 0.0582106 0)
(-2.51529 0.544037 -9.98461e-19)
(-2.579 1.35614 1.25307e-18)
(-2.93102 2.16916 -1.4257e-18)
(-3.08837 2.71914 7.35768e-19)
(-3.13191 2.9637 8.80343e-19)
(-3.1843 3.0381 -4.53822e-19)
(-3.20072 3.10515 7.44284e-19)
(-3.20517 3.23603 0)
(-3.19106 3.34387 -1.29792e-18)
(-3.05988 -0.340463 3.28163e-19)
(-2.79055 0.122885 0)
(-2.92241 0.779737 0)
(-3.11616 1.54204 -6.24312e-19)
(-3.24389 2.20529 4.29546e-19)
(-3.2977 2.66192 -1.39197e-18)
(-3.23409 2.92903 0)
(-3.13571 3.09221 -3.46711e-18)
(-3.06844 3.15817 3.41636e-18)
(-2.99982 3.23732 -9.80901e-19)
(-2.93056 3.32754 -2.32892e-18)
(-2.85437 3.41201 3.14062e-18)
(-3.33028 -0.134613 -9.78322e-19)
(-3.24122 0.456533 1.37106e-18)
(-3.39047 1.16856 0)
(-3.47019 1.86086 6.96821e-19)
(-3.4453 2.3769 -6.51503e-19)
(-3.36353 2.68182 1.34953e-18)
(-3.24358 2.88255 0)
(-3.12873 2.99887 -1.90899e-18)
(-3.03453 3.06094 -4.30181e-18)
(-2.94687 3.12511 2.68072e-18)
(-2.85936 3.18699 2.68537e-18)
(-2.77369 3.25171 -5.37353e-18)
(-3.48962 0.144521 1.34937e-18)
(-3.52785 0.737536 -1.01264e-18)
(-3.61602 1.3912 1.92902e-18)
(-3.59461 1.98536 0)
(-3.49554 2.38497 -5.98627e-18)
(-3.361 2.63567 4.43639e-18)
(-3.22085 2.77965 2.53049e-18)
(-3.08626 2.86589 1.7768e-18)
(-2.96898 2.92753 0)
(-2.86192 2.98851 0)
(-2.76026 3.0505 0)
(-2.66293 3.11494 -5.42282e-19)
(-3.62878 0.371843 2.91619e-18)
(-3.73801 0.930645 0)
(-3.75637 1.50773 -1.66313e-18)
(-3.66688 2.00556 3.74565e-18)
(-3.51822 2.33526 2.63135e-18)
(-3.35611 2.53011 -5.52492e-18)
(-3.19274 2.64931 2.60016e-18)
(-3.04123 2.73155 -9.06395e-18)
(-2.90648 2.79568 -9.52329e-20)
(-2.78454 2.85619 -3.01866e-19)
(-2.67187 2.91636 2.17069e-19)
(-2.56649 2.97758 9.23496e-18)
(-3.78372 0.542933 -4.79876e-18)
(-3.94186 1.05255 3.12359e-18)
(-3.89387 1.54549 -4.88353e-18)
(-3.75593 1.95747 -3.61368e-18)
(-3.56563 2.23118 -6.86492e-18)
(-3.36924 2.39833 -3.63395e-18)
(-3.18099 2.50931 -5.39902e-18)
(-3.00938 2.59127 8.9878e-18)
(-2.85598 2.65857 0)
(-2.71816 2.72077 7.74009e-18)
(-2.59297 2.7811 -1.0861e-17)
(-2.47823 2.841 3.64416e-18)
(-3.96745 0.671425 -2.80298e-18)
(-4.16135 1.11794 -4.6319e-18)
(-4.05497 1.52523 7.36586e-18)
(-3.87382 1.86353 0)
(-3.64212 2.09643 -4.03016e-18)
(-3.40803 2.25109 6.04265e-18)
(-3.18959 2.36117 -2.7585e-19)
(-2.99251 2.44673 8.04376e-20)
(-2.81721 2.51855 -4.58777e-18)
(-2.66131 2.58355 -8.50864e-18)
(-2.52188 2.64482 3.79051e-18)
(-2.39636 2.70407 -3.80773e-18)
(-4.15439 0.730513 2.22297e-18)
(-4.40288 1.13997 0)
(-4.23409 1.46096 0)
(-4.00617 1.73035 0)
(-3.73354 1.93325 3.53486e-18)
(-3.46126 2.08427 0)
(-3.2095 2.20026 -3.48953e-19)
(-2.98388 2.29343 1.08013e-17)
(-2.78449 2.37173 2.25137e-19)
(-2.60893 2.44077 4.45314e-18)
(-2.45411 2.50364 -4.41082e-18)
(-2.31686 2.5626 1.29286e-17)
(-4.45113 0.807069 6.88603e-20)
(-4.66051 1.11748 9.69611e-18)
(-4.38502 1.32759 -2.53601e-18)
(-4.09279 1.54777 0)
(-3.78189 1.73371 0)
(-3.47896 1.88797 0)
(-3.20121 2.01448 0)
(-2.95316 2.11865 5.77247e-18)
(-2.73457 2.20611 -2.17532e-17)
(-2.54315 2.28146 -1.05326e-17)
(-2.37589 2.34772 1.00204e-17)
(-2.22917 2.40779 5.27507e-18)
(-4.57619 0.957432 -6.80661e-18)
(-4.68293 0.9781 -5.24175e-18)
(-4.32893 1.08926 -2.76078e-18)
(-3.98241 1.28415 0)
(-3.66735 1.47214 0)
(-3.3659 1.63894 7.35626e-18)
(-3.09032 1.78199 -1.33965e-17)
(-2.84327 1.90257 2.50607e-17)
(-2.6242 2.0039 1.74565e-17)
(-2.43157 2.09009 1.07908e-17)
(-2.26327 2.16374 -1.03511e-17)
(-2.11587 2.22852 5.48008e-19)
(-4.1836 0.389113 -1.91825e-18)
(-4.12039 0.592504 0)
(-3.79168 0.73573 3.92447e-18)