/*--------------------------------*- C++ -*----------------------------------*\
| =========                 |                                                 |
| \\      /  F ield         | OpenFOAM: The Open Source CFD Toolbox           |
|  \\    /   O peration     | Version:  v1912                                 |
|   \\  /    A nd           | Website:  www.openfoam.com                      |
|    \\/     M anipulation  |                                                 |
\*---------------------------------------------------------------------------*/
FoamFile
{
    version     2.0;
    format      ascii;
    class       volScalarField;
    location    "450";
    object      epsilon;
}
// * * * * * * * * * * * * * * * * * * * * * * * * * * * * * * * * * * * * * //

dimensions      [0 2 -3 0 0 0 0];


internalField   nonuniform List<scalar> 
3072
(
3.59771
3.06724
3.58415
3.59739
3.32842
2.76539
2.82349
4.71745
22.0565
39.6472
47.7602
52.7948
7.20748
6.45632
5.28247
5.02726
5.59477
10.8514
21.1184
23.364
29.2502
34.1303
35.3918
36.146
8.93568
7.16077
9.52307
14.2275
17.8097
18.2158
20.0785
22.9557
26.4946
28.0602
29.1678
30.2384
12.9852
10.4615
13.5762
15.3944
16.2922
17.086
19.9035
22.797
24.931
26.0559
27.0555
27.9644
14.895
12.1633
14.0292
14.6008
15.4695
17.5716
20.5241
23.0842
24.7714
25.6735
26.4394
27.1353
15.7866
12.5315
13.6921
14.3562
16.0875
18.8932
21.7159
23.7892
25.116
25.9146
26.5527
27.1087
16.1423
12.1508
13.0731
14.8846
17.6436
20.7871
23.4431
25.2911
26.3904
27.0676
27.5691
27.9962
16.4948
11.9493
13.6979
17.0893
21.1724
24.7357
27.3
28.9167
29.7884
30.2314
30.4751
30.6373
17.657
12.9828
17.4521
23.7523
29.6182
33.7148
36.0796
37.1536
37.3552
37.0625
36.5551
35.9959
19.9933
17.4881
29.6043
40.7764
48.5922
52.5307
53.5179
52.7011
50.93
48.7581
46.5453
44.4792
24.8498
35.2926
60.5349
76.4759
82.4564
82.4978
79.3447
74.6604
69.4643
64.3081
59.5326
55.2742
114.557
108.186
118.783
122.008
119.269
111.95
103.54
94.9013
86.5566
78.7293
71.6498
65.3736
56.2368
57.9159
58.4583
58.1667
57.1846
54.1803
50.1609
44.0798
36.9916
27.9632
18.515
23.1322
36.6805
37.1642
37.5476
38.1069
38.8616
40.1434
42.6135
46.5723
51.6627
57.5154
61.5313
75.1084
31.0398
31.6159
32.0519
32.5105
33.3723
35.0571
38.0666
43.0669
50.9562
62.9012
81.2304
120.11
28.6527
29.2093
29.7047
30.2794
31.2014
32.8852
35.9154
41.1524
49.8946
64.6847
92.4396
152.219
27.69
28.1454
28.5636
29.0813
29.9443
31.5243
34.4083
39.5364
48.5545
64.9041
98.9048
177.859
27.5551
27.9424
28.3244
28.8204
29.6484
31.1587
33.9334
38.9164
47.8324
64.7062
102.476
200.94
28.3768
28.7302
29.0987
29.5736
30.3334
31.7034
34.2474
38.9423
47.6424
64.4184
104.494
221.655
30.7915
30.9565
31.1658
31.4926
32.0902
33.2354
35.4629
39.7567
48.018
64.5258
105.361
246.609
35.4814
35.0648
34.7873
34.7373
35.0102
35.7859
37.5764
41.3409
49.0512
65.1563
106.817
276.052
42.6697
41.1667
39.9928
39.1992
38.919
39.3002
40.5434
43.6506
50.6393
66.1255
108.331
307.418
51.6236
48.6134
46.2225
44.4667
43.3931
43.2888
44.0786
46.4692
52.529
67.148
110.369
346.715
59.9933
55.576
52.0669
49.4623
47.7302
47.0694
47.5345
49.2477
53.9561
67.0822
110.591
412.474
3.59383
3.06512
3.58284
3.59661
3.3286
2.7657
2.82343
4.71284
22.0344
39.6384
47.7575
52.7925
7.20559
6.45579
5.28235
5.02714
5.59448
10.8442
21.1171
23.3653
29.2436
34.1301
35.3926
36.1466
8.93436
7.15936
9.5191
14.2238
17.8142
18.2213
20.077
22.9534
26.4925
28.0599
29.1671
30.2377
12.9827
10.4593
13.5743
15.3968
16.2967
17.0859
19.9003
22.795
24.9295
26.0551
27.0545
27.9636
14.8921
12.1613
14.0296
14.6024
15.4692
17.5701
20.5212
23.0826
24.7704
25.6728
26.4385
27.1345
15.7832
12.5305
13.692
14.3558
16.0867
18.8913
21.7147
23.7884
25.1155
25.9141
26.552
27.1079
16.1412
12.1504
13.0733
14.8846
17.6434
20.7869
23.4432
25.2914
26.3905
27.0674
27.5685
27.9954
16.4957
11.9505
13.699
17.0907
21.1744
24.738
27.3022
28.9185
29.7895
30.2318
30.4748
30.6366
17.6606
12.9852
17.4554
23.7571
29.6241
33.7208
36.085
37.1578
37.358
37.064
36.5556
35.9957
19.9992
17.4925
29.6109
40.7857
48.6032
52.5415
53.527
52.7081
50.935
48.7612
46.5469
44.4797
24.8565
35.2986
60.5435
76.4872
82.4687
82.5098
79.3552
74.6689
69.4707
64.3125
59.5352
55.2755
114.561
108.188
118.785
122.013
119.275
111.958
103.548
94.9085
86.5626
78.7338
71.6529
65.3755
56.237
57.9168
58.4611
58.1697
57.1888
54.1848
50.166
44.0844
36.9958
27.9666
18.5179
23.1367
36.6813
37.1651
37.5495
38.1094
38.8647
40.1471
42.618
46.5773
51.6686
57.5219
61.5391
75.1197
31.0396
31.6163
32.0527
32.5119
33.3742
35.0596
38.0698
43.0709
50.9612
62.9077
81.2394
120.123
28.6521
29.2091
29.7049
30.28
31.2026
32.8869
35.9178
41.1556
49.8989
64.6909
92.4491
152.235
27.6893
28.1449
28.5633
29.0814
29.9448
31.5253
34.4099
39.5389
48.5582
64.9099
98.9142
177.877
27.5543
27.9416
28.3239
28.8201
29.6485
31.1592
33.9346
38.9183
47.8355
64.7114
102.486
200.96
28.3759
28.7293
29.0979
29.573
30.3332
31.7037
34.2482
38.9439
47.6452
64.4231
104.503
221.675
30.7906
30.9555
31.1649
31.4919
32.0898
33.2354
35.4634
39.758
48.0204
64.5301
105.369
246.631
35.4807
35.0639
34.7864
34.7366
35.0097
35.7858
37.5767
41.3419
49.0532
65.1601
106.825
276.076
42.6695
41.1661
39.9921
39.1985
38.9186
39.3
40.5437
43.6515
50.641
66.1289
108.338
307.444
51.624
48.6133
46.2221
44.4663
43.3929
43.2889
44.0789
46.47
52.5306
67.1512
110.377
346.744
59.9943
55.5765
52.067
49.4624
47.7304
47.0698
47.535
49.2486
53.9575
67.0849
110.598
412.507
3.59192
3.06298
3.5801
3.59351
3.32498
2.7627
2.82138
4.7174
22.0647
39.6555
47.7691
52.8049
7.20167
6.4523
5.27949
5.02443
5.59145
10.8486
21.1182
23.3661
29.2557
34.1357
35.3975
36.1521
8.92978
7.15732
9.51935
14.2243
17.807
18.2143
20.0807
22.9594
26.499
28.0648
29.1729
30.2437
12.9807
10.4588
13.5736
15.3923
16.2904
17.0871
19.9066
22.8004
24.9349
26.06
27.06
27.9691
14.8925
12.1615
14.0274
14.5995
15.4701
17.5732
20.5269
23.0872
24.7746
25.6771
26.4434
27.1397
15.7858
12.5305
13.6909
14.3562
16.0884
18.8951
21.7182
23.7919
25.119
25.918
26.5566
27.1129
16.1421
12.1503
13.0729
14.885
17.6448
20.7889
23.4454
25.2937
26.3934
27.071
27.5729
28.0004
16.4954
11.9493
13.6981
17.0902
21.1741
24.7379
27.3026
28.9197
29.7917
30.2351
30.4792
30.6417
17.6579
12.983
17.453
23.754
29.6206
33.7178
36.0832
37.1575
37.3593
37.0667
36.5595
36.0004
19.9941
17.4889
29.6064
40.7795
48.5961
52.5352
53.5227
52.706
50.9348
48.7628
46.5498
44.4836
24.8513
35.2955
60.5397
76.4813
82.4619
82.5034
79.3502
74.6658
69.4694
64.3128
59.5369
55.2782
114.571
108.194
118.79
122.013
119.274
111.955
103.545
94.9059
86.561
78.7334
71.6534
65.3768
56.2474
57.9267
58.469
58.1772
57.1944
54.1895
50.1688
44.0866
36.997
27.9669
18.5174
23.1354
36.6867
37.1704
37.5534
38.1125
38.8673
40.1489
42.619
46.5782
51.6691
57.5222
61.5383
75.1178
31.0452
31.6214
32.0573
32.516
33.3779
35.0628
38.0726
43.0736
50.9637
62.9101
81.2406
120.124
28.6576
29.2144
29.71
30.2848
31.2071
32.8911
35.9217
41.1594
49.9026
64.6945
92.453
152.24
27.6947
28.1503
28.5687
29.0867
29.95
31.5304
34.4148
39.5437
48.5631
64.9147
98.9199
177.885
27.5597
27.9473
28.3296
28.8258
29.6541
31.1648
33.9401
38.9239
47.8412
64.7174
102.493
200.972
28.3814
28.7351
29.1039
29.579
30.3392
31.7095
34.254
38.9498
47.6513
64.4299
104.511
221.691
30.7961
30.9613
31.1709
31.4979
32.0958
33.2414
35.4695
39.7641
48.0269
64.5374
105.378
246.651
35.486
35.0695
34.7922
34.7425
35.0156
35.7916
37.5827
41.348
49.0598
65.1675
106.835
276.099
42.6741
41.1711
39.9973
39.2038
38.924
39.3054
40.5492
43.6573
50.6474
66.1363
108.349
307.471
51.6273
48.6171
46.2262
44.4706
43.3973
43.2934
44.0836
46.475
52.5364
67.1582
110.387
346.775
59.9962
55.5789
52.0697
49.4654
47.7336
47.0733
47.5386
49.2526
53.9622
67.0909
110.607
412.546
3.59372
3.06483
3.5826
3.59631
3.32813
2.76536
2.82345
4.71574
22.0501
39.6494
47.7665
52.8022
7.20564
6.45574
5.28243
5.0274
5.595
10.849
21.1207
23.3679
29.2515
34.1353
35.3974
36.1517
8.93457
7.16001
9.52103
14.2267
17.8147
18.2216
20.0807
22.9579
26.4973
28.0639
29.1715
30.2422
12.9836
10.4606
13.5762
15.3978
16.2972
17.0882
19.9043
22.7988
24.9334
26.0588
27.0584
27.9675
14.8933
12.1628
14.031
14.6036
15.4711
17.5728
20.5248
23.086
24.7736
25.6761
26.442
27.1382
15.7846
12.5318
13.6934
14.3575
16.0887
18.8939
21.7174
23.7912
25.1184
25.9171
26.5553
27.1114
16.1421
12.1514
13.0745
14.886
17.6451
20.7889
23.4454
25.2937
26.393
27.0702
27.5716
27.9988
16.4961
11.951
13.6999
17.0918
21.1756
24.7394
27.3037
28.9203
29.7916
30.2343
30.4778
30.6399
17.6606
12.9855
17.456
23.7578
29.6247
33.7214
36.0858
37.159
37.3597
37.0662
36.5582
35.9987
19.999
17.493
29.6118
40.7864
48.6034
52.5414
53.5272
52.7086
50.936
48.7628
46.5489
44.4822
24.8574
35.3011
60.5467
76.4893
82.4697
82.5099
79.3549
74.6687
69.4708
64.3131
59.5364
55.2772
114.577
108.198
118.794
122.018
119.279
111.959
103.548
94.9084
86.5624
78.7339
71.6534
65.3764
56.2461
57.9259
58.4693
58.1778
57.1961
54.1913
50.1713
44.0887
36.9988
27.9686
18.5191
23.1385
36.6863
37.1701
37.5539
38.1135
38.8686
40.1506
42.6213
46.5808
51.6721
57.5253
61.5426
75.1248
31.0439
31.6203
32.0565
32.5156
33.3777
35.0629
38.073
43.0742
50.9647
62.9117
81.2441
120.13
28.656
29.2129
29.7086
30.2836
31.2061
32.8903
35.9211
41.159
49.9025
64.6951
92.4546
152.245
27.693
28.1486
28.567
29.0851
29.9484
31.5289
34.4135
39.5425
48.5621
64.9143
98.9202
177.888
27.5579
27.9453
28.3276
28.8238
29.6522
31.163
33.9384
38.9222
47.8397
64.7162
102.492
200.973
28.3794
28.7329
29.1017
29.5768
30.337
31.7075
34.2521
38.948
47.6496
64.4282
104.51
221.691
30.794
30.9591
31.1686
31.4956
32.0936
33.2393
35.4674
39.7622
48.025
64.5355
105.377
246.649
35.484
35.0673
34.79
34.7402
35.0134
35.7895
37.5807
41.3461
49.0579
65.1656
106.833
276.095
42.6724
41.1692
39.9953
39.2019
38.9221
39.3036
40.5474
43.6555
50.6455
66.1342
108.346
307.465
51.6261
48.6157
46.2248
44.4693
43.396
43.2921
44.0823
46.4736
52.5347
67.1562
110.384
346.765
59.9957
55.5783
52.0692
49.4649
47.7331
47.0727
47.538
49.2517
53.9609
67.0889
110.604
412.529
154.872
146.842
138.679
130.53
123.367
115.864
108.142
100.299
92.4366
84.641
77.2929
70.5121
96.2285
97.6325
97.7995
97.3024
96.4021
94.7174
92.3766
89.176
84.8016
79.4517
73.981
68.4878
68.3524
69.751
70.6653
71.1889
71.5726
71.5155
71.0635
70.0936
68.5355
66.5844
64.0858
60.8962
53.8999
54.4139
54.6372
54.6181
54.5784
54.4984
54.3516
54.0898
53.6601
53.0599
52.2884
51.3899
64.5319
59.6065
55.6838
52.77
50.8322
49.8647
50.0746
51.1365
54.2317
62.7287
85.7524
168.863
63.4121
59.2744
55.9961
53.5868
51.97
51.0017
51.0023
51.5455
53.2346
57.4243
67.7516
91.9886
57.787
55.3892
53.4368
51.9457
50.8293
49.9952
49.6511
49.7302
50.5742
52.303
56.9703
65.5455
50.6637
49.8699
48.8653
47.8075
46.7959
45.9314
45.4541
45.4099
46.0591
46.9594
49.3114
52.6722
154.86
146.833
138.674
130.528
123.368
115.867
108.147
100.304
92.4413
84.6452
77.2962
70.5146
96.2242
97.6286
97.7967
97.301
96.4024
94.7192
92.3792
89.1796
84.8061
79.456
73.9848
68.491
68.3512
69.75
70.6646
71.1888
71.5738
71.5176
71.0664
70.0972
68.5395
66.5887
64.0902
60.9002
53.8987
54.4134
54.6377
54.6192
54.5802
54.5009
54.3548
54.0935
53.6642
53.0642
52.2927
51.3941
64.5336
59.6076
55.6846
52.7708
50.833
49.8656
50.0756
51.1376
54.233
62.7307
85.756
168.871
63.4147
59.2765
55.9979
53.5884
51.9715
51.0031
51.0036
51.5467
53.2359
57.4257
67.7536
91.9918
57.7906
55.3924
53.4395
51.948
50.8313
49.9968
49.6524
49.7313
50.5752
52.3041
56.9715
65.547
50.6677
49.8735
48.8684
47.8099
46.7978
45.9327
45.4551
45.4107
46.0598
46.9601
49.3121
52.673
154.869
146.842
138.681
130.532
123.369
115.866
108.145
100.303
92.4398
84.6441
77.2956
70.5145
96.2276
97.6325
97.8005
97.3039
96.4039
94.7194
92.3788
89.1785
84.8043
79.4543
73.9834
68.4898
68.3528
69.7519
70.6665
71.1906
71.5746
71.5178
71.066
70.0963
68.5382
66.5871
64.0883
60.8983
53.8995
54.4143
54.6386
54.6198
54.5805
54.5008
54.3543
54.0926
53.6631
53.0628
52.2911
51.3925
64.534
59.6085
55.6858
52.7723
50.8347
49.8677
50.0778
51.1403
54.2364
62.7352
85.7629
168.889
63.4138
59.276
55.9977
53.5885
51.9719
51.004
51.0048
51.5484
53.2381
57.429
67.7585
92.0004
57.7888
55.3909
53.4384
51.9473
50.831
49.9969
49.6533
49.7327
50.5773
52.307
56.9759
65.5533
50.6662
49.8722
48.8675
47.8095
46.798
45.9336
45.4573
45.4134
46.0633
46.9645
49.3176
52.6795
154.881
146.849
138.686
130.537
123.374
115.871
108.15
100.306
92.4423
84.6458
77.2969
70.5155
96.2371
97.6412
97.8083
97.3116
96.4116
94.7269
92.3859
89.1848
84.8092
79.4584
73.9868
68.4928
68.3603
69.7597
70.6746
71.1988
71.583
71.5262
71.0742
70.1041
68.5457
66.5939
64.0943
60.9034
53.9068
54.422
54.6466
54.628
54.5888
54.5091
54.3625
54.1006
53.6706
53.0698
52.2976
51.3985
64.5348
59.6093
55.6866
52.7731
50.8354
49.8681
50.078
51.1401
54.2357
62.7337
85.7598
168.881
63.4166
59.2787
56.0002
53.5907
51.9738
51.0051
51.0055
51.5486
53.2378
57.4278
67.7557
91.9957
57.7936
55.3954
53.4423
51.9505
50.8334
49.9985
49.6537
49.7326
50.5764
52.3053
56.9729
65.5493
50.6715
49.8766
48.8708
47.8119
46.7993
45.9338
45.4562
45.4118
46.0609
46.9614
49.3137
52.6758
44.5598
44.2373
43.8822
43.5544
43.3762
43.2803
43.2435
43.2616
43.3268
43.4473
43.6093
43.772
37.3627
36.965
36.6439
36.4361
36.3717
36.4023
36.5296
36.7889
37.1833
37.6388
38.0304
38.1849
32.0056
31.8254
31.7228
31.6975
31.7234
31.7798
31.9068
32.2063
32.783
33.5635
34.4346
35.0858
27.8941
27.9725
28.0828
28.1813
28.2181
28.1641
28.1148
28.1951
28.646
29.6335
31.7808
35.7601
43.7989
42.0633
40.4452
39.6245
39.1842
39.2301
39.782
40.6722
41.8336
43.0158
44.2783
44.981
37.8698
34.5013
32.4746
31.9594
32.1632
32.968
34.194
35.5773
36.7983
37.6942
38.3028
38.1687
35.2532
28.761
26.2701
25.9097
26.4902
27.6871
29.2104
30.6789
31.7955
32.5159
32.8514
32.5782
39.5861
24.783
21.4664
21.096
21.861
23.193
24.7625
26.1753
27.2064
27.8605
28.1671
28.0831
44.5603
44.2387
43.8845
43.5571
43.3795
43.2839
43.2473
43.2655
43.3308
43.4512
43.6131
43.7756
37.3643
36.9673
36.6469
36.4395
36.3753
36.4061
36.5334
36.7925
37.1868
37.6421
38.0337
38.188
32.0076
31.828
31.726
31.7009
31.727
31.7834
31.9103
32.2094
32.786
33.5663
34.4373
35.0884
27.8963
27.9751
28.0857
28.1845
28.2215
28.1674
28.1179
28.1979
28.6486
29.6359
31.7832
35.7628
43.8022
42.0658
40.4471
39.6258
39.1851
39.2307
39.7824
40.6726
41.8339
43.0161
44.2786
44.9814
37.8724
34.503
32.4758
31.96
32.1636
32.9683
34.1942
35.5775
36.7984
37.6943
38.303
38.1688
35.2557
28.7624
26.2709
25.9101
26.4904
27.6872
29.2105
30.679
31.7956
32.516
32.8515
32.5783
39.589
24.7842
21.467
21.0964
21.8612
23.1931
24.7626
26.1754
27.2065
27.8606
28.1673
28.0833
44.5607
44.239
43.8846
43.557
43.3791
43.2833
43.2466
43.2647
43.3299
43.4505
43.6127
43.7757
37.3644
36.9673
36.6467
36.4391
36.3748
36.4055
36.5329
36.7924
37.187
37.6429
38.0354
38.1907
32.0078
31.8281
31.7259
31.7007
31.7267
31.7832
31.9104
32.2104
32.7875
33.5687
34.4417
35.0945
27.8966
27.9753
28.0858
28.1846
28.2216
28.1678
28.1189
28.1996
28.6514
29.6401
31.7895
35.772
43.8029
42.067
40.4489
39.6286
39.1887
39.235
39.7875
40.6782
41.84
43.0227
44.2859
44.9889
37.8763
34.5071
32.4803
31.9653
32.1695
32.9747
34.2011
35.5847
36.8059
37.702
38.3108
38.1765
35.2628
28.7687
26.2772
25.9168
26.4975
27.6947
29.2182
30.6867
31.8034
32.5237
32.8591
32.5854
39.602
24.7921
21.4741
21.1036
21.8686
23.2008
24.7704
26.1831
27.214
27.8679
28.1742
28.0896
44.5684
44.2468
43.8923
43.5646
43.3865
43.2904
43.2531
43.2707
43.3353
43.455
43.6163
43.7781
37.3719
36.9745
36.6535
36.4455
36.3808
36.411
36.5376
36.796
37.1896
37.6443
38.0353
38.1892
32.0144
31.8342
31.7315
31.7057
31.7312
31.7869
31.9132
32.2114
32.7874
33.5673
34.4379
35.0889
27.9022
27.9803
28.0903
28.1883
28.2246
28.1697
28.1194
28.1989
28.6488
29.6358
31.783
35.763
43.8041
42.0673
40.4484
39.6272
39.1864
39.2321
39.7839
40.6741
41.8356
43.018
44.2811
44.9842
37.8733
34.5042
32.4771
31.9617
32.1654
32.9703
34.1963
35.5796
36.8006
37.6967
38.3056
38.1714
35.2562
28.7634
26.2724
25.912
26.4926
27.6897
29.213
30.6814
31.798
32.5184
32.8541
32.5806
39.5898
24.7853
21.4686
21.0983
21.8635
23.1957
24.7653
26.1781
27.2091
27.8631
28.1698
28.0854
24.5157
24.8062
25.0716
25.2302
25.1892
24.8673
24.3666
23.787
23.243
22.797
22.8512
26.2928
21.5506
21.9895
22.3445
22.5078
22.3126
21.6337
20.5066
18.9183
16.7324
13.488
7.9932
3.20339
18.8356
19.3641
19.7547
19.8894
19.5297
18.5214
16.8343
14.4192
11.1778
7.06181
3.05204
1.84409
16.3059
16.8748
17.273
17.3714
16.8966
15.6869
13.692
10.9373
7.57662
4.16139
1.95993
1.72284
13.9605
14.535
14.9271
14.9996
14.4852
13.2341
11.2101
8.54598
5.6032
3.09766
1.71289
1.68593
11.8284
12.3848
12.7644
12.8275
12.3425
11.1842
9.33163
6.99117
4.59134
2.73179
1.68565
1.60941
9.94903
10.4714
10.8351
10.9019
10.49
9.51159
7.93061
5.98385
4.06983
2.62987
1.73608
1.45492
8.36474
8.84488
9.1898
9.26468
8.94751
8.18295
6.89608
5.32311
3.79757
2.62457
1.80376
1.2459
7.13031
7.56818
7.89392
7.98242
7.75794
7.18717
6.17145
4.91463
3.68299
2.67524
1.85066
0.98479
6.36119
6.77277
7.09184
7.19845
7.05048
6.61432
5.80685
4.78813
3.72818
2.78688
1.86711
0.690483
6.53096
6.97874
7.33971
7.48215
7.36875
6.94866
6.23239
5.31194
4.22751
3.11429
1.85778
0.393495
12.1515
13.1299
13.9779
14.3241
14.0886
13.2588
11.888
9.96481
7.4816
4.66591
2.19051
0.523811
64.4414
21.4077
17.4469
17.1567
18.0028
19.3285
20.8193
22.1426
23.1278
23.7842
24.1806
24.3555
38.4584
16.463
13.916
13.8781
14.7533
16.0023
17.3624
18.5839
19.534
20.229
20.7341
21.1342
27.0143
12.62
11.0089
11.1691
12.0203
13.1572
14.3695
15.4797
16.3826
17.1024
17.7047
18.2662
19.7506
9.74403
8.68707
8.94714
9.7397
10.7487
11.8115
12.8029
13.6464
14.3636
15.0156
15.661
14.6119
7.58362
6.84865
7.14226
7.8564
8.73539
9.65435
10.5237
11.2954
11.9822
12.6335
13.2975
10.7583
5.9327
5.39853
5.68896
6.32057
7.07691
7.86148
8.61403
9.30293
9.93604
10.5525
11.1893
7.8559
4.67143
4.25485
4.527
5.087
5.73545
6.39965
7.04402
7.64789
8.21572
8.77744
9.36046
5.68165
3.67435
3.35097
3.60482
4.11651
4.67876
5.24143
5.79093
6.31614
6.81821
7.31884
7.83825
3.98324
2.82166
2.62584
2.88863
3.38315
3.88721
4.37244
4.84646
5.3082
5.75509
6.20137
6.66212
2.61429
2.05785
2.04588
2.386
2.91423
3.40149
3.84106
4.26452
4.68249
5.09104
5.50616
5.93042
1.54931
1.42129
1.67081
2.21795
2.84091
3.36716
3.8221
4.26469
4.71576
5.15884
5.61276
6.06973
1.15003
1.53607
2.68089
3.93483
4.92034
5.74006
6.52008
7.38667
8.3615
9.3289
10.2654
11.1943
24.5177
24.8085
25.0743
25.2331
25.1923
24.8703
24.3694
23.7895
23.2453
22.7992
22.8537
26.2965
21.5523
21.9916
22.3468
22.5104
22.3153
21.6365
20.5092
18.9207
16.7346
13.4899
7.99481
3.20446
18.837
19.3659
19.7568
19.8917
19.5322
18.524
16.8368
14.4215
11.1798
7.06344
3.05304
1.84489
16.3072
16.8764
17.2748
17.3735
16.8988
15.6892
13.6943
10.9394
7.57838
4.16262
1.96064
1.7236
13.9616
14.5364
14.9287
15.0014
14.4872
13.2362
11.2122
8.54783
5.60467
3.09864
1.71349
1.68666
11.8296
12.3861
12.7659
12.8291
12.3443
11.1861
9.33346
6.99278
4.59259
2.73261
1.68622
1.61008
9.95023
10.4727
10.8364
10.9034
10.4916
9.51326
7.93224
5.98527
4.07093
2.63062
1.73662
1.45552
8.36601
8.84612
9.19113
9.26609
8.949
8.18447
6.89756
5.32439
3.79856
2.62529
1.8043
1.2464
7.13163
7.56945
7.89528
7.9838
7.75937
7.1886
6.17283
4.91583
3.68394
2.67595
1.85121
0.985183
6.3626
6.77417
7.0933
7.1999
7.05194
6.61575
5.80821
4.78931
3.72915
2.78762
1.86768
0.690759
6.53241
6.98042
7.34145
7.48385
7.37043
6.9503
6.23394
5.31329
4.22864
3.11516
1.85837
0.39365
12.1547
13.1335
13.9814
14.3275
14.092
13.2621
11.8911
9.96744
7.48376
4.66732
2.19123
0.523989
64.447
21.4089
17.4475
17.1572
18.003
19.3287
20.8194
22.1427
23.128
23.7844
24.1809
24.3559
38.4617
16.4641
13.9167
13.8786
14.7536
16.0026
17.3626
18.5841
19.5342
20.2293
20.7345
21.1347
27.0167
12.6209
11.0095
11.1696
12.0207
13.1575
14.3698
15.48
16.383
17.1028
17.7052
18.2668
19.7524
9.74488
8.68773
8.94771
9.74019
10.7491
11.8119
12.8033
13.6468
14.3641
15.0162
15.6617
14.6133
7.58436
6.8493
7.14286
7.85697
8.73592
9.65485
10.5241
11.2959
11.9827
12.6342
13.2983
10.7594
5.93334
5.39914
5.68958
6.32118
7.0775
7.86205
8.61459
9.3035
9.93665
10.5532
11.1901
7.85677
4.67196
4.25541
4.52762
5.08764
5.73609
6.40027
7.04464
7.64851
8.21636
8.77814
9.36126
5.68229
3.67478
3.35148
3.60543
4.11718
4.67942
5.24209
5.79159
6.31679
6.81888
7.31955
7.83906
3.98371
2.82199
2.62629
2.88922
3.38382
3.8879
4.37313
4.84714
5.30889
5.75578
6.2021
6.66293
2.6146
2.05812
2.04628
2.38661
2.91494
3.40222
3.84179
4.26523
4.68322
5.09176
5.50692
5.93127
1.54949
1.42151
1.67122
2.21862
2.84171
3.36798
3.82292
4.2655
4.71659
5.15967
5.61363
6.0707
1.15012
1.53632
2.68173
3.93606
4.92171
5.74143
6.52142
7.38805
8.36298
9.3304
10.267
11.1961
24.5181
24.809
25.0747
25.2335
25.1929
24.8712
24.3709
23.7917
23.2485
22.8035
22.8591
26.3023
21.5529
21.9923
22.3476
22.5112
22.3163
21.6377
20.5109
18.9229
16.7372
13.4926
7.99637
3.20463
18.8378
19.3668
19.7578
19.8927
19.5333
18.5253
16.8383
14.4232
11.1814
7.06449
3.05328
1.84478
16.308
16.8774
17.2759
17.3747
16.9001
15.6906
13.6957
10.9406
7.57924
4.16299
1.96068
1.72348
13.9626
14.5375
14.9299
15.0027
14.4886
13.2375
11.2133
8.54872
5.60519
3.09882
1.71351
1.68655
11.8305
12.3872
12.7671
12.8304
12.3456
11.1873
9.33448
6.99349
4.59298
2.73277
1.68623
1.61001
9.95116
10.4737
10.8376
10.9046
10.4929
9.51439
7.93317
5.98589
4.07128
2.6308
1.73665
1.45545
8.36692
8.84713
9.19225
9.26726
8.95019
8.18553
6.89843
5.32497
3.79892
2.62548
1.80434
1.24636
7.13254
7.5704
7.89635
7.98486
7.76052
7.18957
6.17369
4.91637
3.68432
2.67618
1.85126
0.985151
6.36352
6.77512
7.09431
7.20092
7.05301
6.61669
5.80905
4.78988
3.72954
2.78787
1.86774
0.690722
6.53344
6.98147
7.34252
7.48495
7.37158
6.95131
6.23484
5.31392
4.22908
3.11542
1.85841
0.393629
12.1565
13.1354
13.9833
14.3297
14.0941
13.2641
11.8927
9.96868
7.48448
4.66765
2.19127
0.523977
64.4732
21.4175
17.4547
17.1642
18.0103
19.3361
20.8269
22.1499
23.1349
23.791
24.1869
24.3612
38.4806
16.4719
13.9233
13.8851
14.7603
16.0094
17.3695
18.5907
19.5405
20.2351
20.7398
21.1391
27.0315
12.6277
11.0154
11.1754
12.0267
13.1637
14.3759
15.4859
16.3885
17.1078
17.7096
18.2704
19.764
9.75055
8.69276
8.95278
9.74544
10.7545
11.8172
12.8085
13.6516
14.3683
15.0198
15.6646
14.6223
7.58907
6.85355
7.14718
7.86146
8.74052
9.65943
10.5286
11.2999
11.9863
12.6372
13.3006
10.7663
5.93721
5.40268
5.6932
6.32498
7.08141
7.86594
8.61832
9.30691
9.93964
10.5557
11.192
7.8619
4.67513
4.25833
4.53063
5.09082
5.73939
6.40357
7.04778
7.65139
8.21888
8.78022
9.36283
5.68609
3.67736
3.35386
3.6079
4.11983
4.68222
5.24489
5.79427
6.31924
6.82103
7.32132
7.84036
3.98638
2.82402
2.6282
2.89126
3.38606
3.8903
4.37556
4.84947
5.31102
5.75766
6.20364
6.66406
2.61636
2.05961
2.0478
2.38832
2.91692
3.4044
3.84401
4.26738
4.68518
5.0935
5.50836
5.93232
1.55052
1.42253
1.67249
2.22025
2.84369
3.37023
3.82526
4.26779
4.71868
5.16154
5.61518
6.07185
1.15085
1.53731
2.68393
3.93905
4.92541
5.74561
6.5258
7.39231
8.36696
9.33407
10.2701
11.1985
24.5227
24.8128
25.078
25.2361
25.1944
24.8716
24.3701
23.7896
23.2448
22.7984
22.8529
26.2964
21.5565
21.995
22.3497
22.5127
22.3167
21.6372
20.5094
18.9204
16.734
13.4894
7.99477
3.2046
18.8405
19.3687
19.7591
19.8933
19.533
18.5242
16.8366
14.4211
11.1795
7.06337
3.05316
1.84496
16.3101
16.8786
17.2766
17.3747
16.8993
15.6892
13.694
10.9391
7.57824
4.16269
1.9607
1.72364
13.9641
14.5383
14.9301
15.0023
14.4875
13.2361
11.2119
8.54761
5.60461
3.09868
1.71349
1.68668
11.8317
12.3877
12.767
12.8298
12.3445
11.186
9.33321
6.9926
4.59254
2.73261
1.68618
1.61006
9.9521
10.4741
10.8374
10.9039
10.4918
9.51317
7.93203
5.98512
4.07086
2.63057
1.73655
1.45548
8.3677
8.8474
9.19202
9.26659
8.94921
8.18444
6.8974
5.32426
3.79848
2.62521
1.80419
1.24634
7.13321
7.57067
7.89614
7.98431
7.75965
7.18864
6.17272
4.91573
3.68385
2.67585
1.85107
0.985117
6.36417
6.77541
7.0942
7.20046
7.05229
6.61586
5.80819
4.78926
3.72906
2.7875
1.86753
0.690696
6.53418
6.98187
7.34252
7.48457
7.37088
6.95053
6.23401
5.31328
4.22853
3.11499
1.85819
0.393603
12.1583
13.1365
13.9836
14.3288
14.0929
13.2626
11.8912
9.96743
7.48346
4.66703
2.191
0.523905
64.4497
21.4101
17.4491
17.159
18.0053
19.3312
20.8221
22.1453
23.1305
23.7868
24.1833
24.3576
38.4639
16.4652
13.918
13.8803
14.7557
16.0049
17.3651
18.5865
19.5366
20.2317
20.7369
21.1358
27.0185
12.6219
11.0106
11.171
12.0225
13.1596
14.372
15.4823
16.3851
17.105
17.7073
18.2676
19.7538
9.74563
8.68859
8.94881
9.74161
10.7508
11.8137
12.8052
13.6487
14.3659
15.0179
15.6625
14.6144
7.58493
6.84991
7.14366
7.85803
8.73724
9.65636
10.5257
11.2975
11.9842
12.6355
13.2991
10.7602
5.93376
5.39956
5.6901
6.32192
7.07846
7.8632
8.61584
9.30477
9.93784
10.5543
11.1907
7.85734
4.67229
4.25568
4.52792
5.08808
5.73673
6.40109
7.04558
7.6495
8.21731
8.77895
9.36169
5.68271
3.67505
3.35163
3.60554
4.11738
4.67979
5.24263
5.79226
6.31754
6.81963
7.32017
7.83932
3.98401
2.8222
2.62636
2.8892
3.38383
3.88804
4.37344
4.8476
5.30945
5.75636
6.20256
6.66304
2.61481
2.05827
2.0463
2.38646
2.91479
3.40219
3.84192
4.26554
4.68365
5.09224
5.5073
5.93128
1.54963
1.42158
1.67116
2.21837
2.84144
3.36784
3.82297
4.26575
4.71698
5.16015
5.61401
6.07053
1.15025
1.53637
2.68149
3.9356
4.92133
5.74136
6.52174
7.38872
8.36384
9.33143
10.2678
11.1956
)
;

boundaryField
{
    rotor
    {
        lowReCorrection 0;
        type            epsilonWallFunction;
        value           nonuniform List<scalar> 
192
(
3.59771
3.06724
3.58415
3.59739
3.32842
2.76539
2.82349
4.71745
22.0565
39.6472
47.7602
52.7948
56.2368
57.9159
58.4583
58.1667
57.1846
54.1803
50.1609
44.0798
36.9916
27.9632
18.515
23.1322
3.59383
3.06512
3.58284
3.59661
3.3286
2.7657
2.82343
4.71284
22.0344
39.6384
47.7575
52.7925
56.237
57.9168
58.4611
58.1697
57.1888
54.1848
50.166
44.0844
36.9958
27.9666
18.5179
23.1367
3.59192
3.06298
3.5801
3.59351
3.32498
2.7627
2.82138
4.7174
22.0647
39.6555
47.7691
52.8049
56.2474
57.9267
58.469
58.1772
57.1944
54.1895
50.1688
44.0866
36.997
27.9669
18.5174
23.1354
3.59372
3.06483
3.5826
3.59631
3.32813
2.76536
2.82345
4.71574
22.0501
39.6494
47.7665
52.8022
56.2461
57.9259
58.4693
58.1778
57.1961
54.1913
50.1713
44.0887
36.9988
27.9686
18.5191
23.1385
3.59771
7.20748
8.93568
12.9852
14.895
15.7866
16.1423
16.4948
17.657
19.9933
24.8498
114.557
23.1385
75.1248
120.13
152.245
177.888
200.973
221.691
246.649
276.095
307.465
346.765
412.529
3.59383
7.20559
8.93436
12.9827
14.8921
15.7832
16.1412
16.4957
17.6606
19.9992
24.8565
114.561
23.1322
75.1084
120.11
152.219
177.859
200.94
221.655
246.609
276.052
307.418
346.715
412.474
3.59192
7.20167
8.92978
12.9807
14.8925
15.7858
16.1421
16.4954
17.6579
19.9941
24.8513
114.571
23.1367
75.1197
120.123
152.235
177.877
200.96
221.675
246.631
276.076
307.444
346.744
412.507
3.59372
7.20564
8.93457
12.9836
14.8933
15.7846
16.1421
16.4961
17.6606
19.999
24.8574
114.577
23.1354
75.1178
120.124
152.24
177.885
200.972
221.691
246.651
276.099
307.471
346.775
412.546
)
;
    }
    stator
    {
        lowReCorrection 0;
        type            epsilonWallFunction;
        value           nonuniform List<scalar> 
192
(
12.1515
13.1299
13.9779
14.3241
14.0886
13.2588
11.888
9.96481
7.4816
4.66591
2.19051
0.523811
1.15003
1.53607
2.68089
3.93483
4.92034
5.74006
6.52008
7.38667
8.3615
9.3289
10.2654
11.1943
12.1547
13.1335
13.9814
14.3275
14.092
13.2621
11.8911
9.96744
7.48376
4.66732
2.19123
0.523989
1.15012
1.53632
2.68173
3.93606
4.92171
5.74143
6.52142
7.38805
8.36298
9.3304
10.267
11.1961
12.1565
13.1354
13.9833
14.3297
14.0941
13.2641
11.8927
9.96868
7.48448
4.66765
2.19127
0.523977
1.15085
1.53731
2.68393
3.93905
4.92541
5.74561
6.5258
7.39231
8.36696
9.33407
10.2701
11.1985
12.1583
13.1365
13.9836
14.3288
14.0929
13.2626
11.8912
9.96743
7.48346
4.66703
2.191
0.523905
1.15025
1.53637
2.68149
3.9356
4.92133
5.74136
6.52174
7.38872
8.36384
9.33143
10.2678
11.1956
64.4414
38.4584
27.0143
19.7506
14.6119
10.7583
7.8559
5.68165
3.98324
2.61429
1.54931
1.15003
26.2928
3.20339
1.84409
1.72284
1.68593
1.60941
1.45492
1.2459
0.98479
0.690483
0.393495
0.523811
64.447
38.4617
27.0167
19.7524
14.6133
10.7594
7.85677
5.68229
3.98371
2.6146
1.54949
1.15012
26.2965
3.20446
1.84489
1.7236
1.68666
1.61008
1.45552
1.2464
0.985183
0.690759
0.39365
0.523989
64.4732
38.4806
27.0315
19.764
14.6223
10.7663
7.8619
5.68609
3.98638
2.61636
1.55052
1.15085
26.3023
3.20463
1.84478
1.72348
1.68655
1.61001
1.45545
1.24636
0.985151
0.690722
0.393629
0.523977
64.4497
38.4639
27.0185
19.7538
14.6144
10.7602
7.85734
5.68271
3.98401
2.61481
1.54963
1.15025
26.2964
3.2046
1.84496
1.72364
1.68668
1.61006
1.45548
1.24634
0.985117
0.690696
0.393603
0.523905
)
;
    }
    front
    {
        type            empty;
    }
    back
    {
        type            empty;
    }
}


// ************************************************************************* //
