/*--------------------------------*- C++ -*----------------------------------*\
| =========                 |                                                 |
| \\      /  F ield         | OpenFOAM: The Open Source CFD Toolbox           |
|  \\    /   O peration     | Version:  v1912                                 |
|   \\  /    A nd           | Website:  www.openfoam.com                      |
|    \\/     M anipulation  |                                                 |
\*---------------------------------------------------------------------------*/
FoamFile
{
    version     2.0;
    format      ascii;
    class       volScalarField;
    location    "450";
    object      k;
}
// * * * * * * * * * * * * * * * * * * * * * * * * * * * * * * * * * * * * * //

dimensions      [0 2 -2 0 0 0 0];


internalField   nonuniform List<scalar> 
3072
(
0.033912
0.0456435
0.0506327
0.0507603
0.0482065
0.0426016
0.0431781
0.0606732
0.169606
0.251145
0.284432
0.304098
0.0580236
0.10692
0.10944
0.105499
0.0890361
0.0952383
0.172413
0.198619
0.263727
0.34096
0.405131
0.473212
0.0715712
0.128812
0.168363
0.196893
0.206182
0.197974
0.23607
0.311374
0.402512
0.488716
0.564956
0.631549
0.0975515
0.188726
0.219369
0.222179
0.222094
0.250925
0.337891
0.432675
0.52203
0.599818
0.66761
0.725021
0.112999
0.220782
0.241983
0.241615
0.266117
0.344934
0.440728
0.532498
0.613327
0.681696
0.740466
0.79047
0.123646
0.242006
0.268987
0.285555
0.346455
0.437189
0.530177
0.614271
0.685556
0.745223
0.796346
0.84018
0.131636
0.259917
0.300855
0.351846
0.436218
0.53075
0.618702
0.694514
0.757309
0.809004
0.852695
0.890103
0.139643
0.285562
0.356561
0.449734
0.555221
0.65238
0.733801
0.79927
0.850895
0.891761
0.92521
0.953421
0.152378
0.329759
0.463695
0.605518
0.732448
0.830622
0.901557
0.951346
0.985718
1.00961
1.02708
1.0408
0.172173
0.408326
0.652774
0.85074
0.992314
1.08238
1.13389
1.1596
1.16859
1.16783
1.16232
1.15517
0.206532
0.559548
0.958465
1.20183
1.33079
1.39106
1.40945
1.4024
1.37931
1.34873
1.31593
1.28397
0.592385
0.963228
1.38103
1.57349
1.64513
1.65752
1.64395
1.60647
1.55804
1.5039
1.449
1.39615
0.317208
0.323501
0.325539
0.324459
0.320809
0.309478
0.293987
0.26972
0.239979
0.199141
0.151284
0.117253
0.534107
0.583211
0.618315
0.633759
0.632511
0.623465
0.608672
0.583842
0.538674
0.444377
0.326665
0.276853
0.684434
0.722243
0.744599
0.753654
0.754382
0.751563
0.745331
0.733742
0.707201
0.64283
0.488074
0.404681
0.770362
0.80432
0.82768
0.842266
0.851147
0.857749
0.864477
0.870393
0.867184
0.833471
0.696744
0.503517
0.830877
0.862364
0.885821
0.903074
0.917093
0.931443
0.949317
0.971161
0.986431
0.977943
0.874269
0.590478
0.876639
0.906305
0.930127
0.949922
0.968674
0.990307
1.01872
1.05537
1.09491
1.11363
1.05611
0.674212
0.921826
0.948601
0.971465
0.992241
1.01394
1.04085
1.07777
1.12765
1.18676
1.23241
1.21634
0.754884
0.977562
0.998603
1.0177
1.0366
1.05821
1.08717
1.12947
1.1903
1.26836
1.34024
1.35563
0.847361
1.05246
1.06327
1.0746
1.08795
1.10575
1.13278
1.17627
1.24459
1.3406
1.44035
1.47531
0.952396
1.14854
1.14403
1.14347
1.14789
1.15851
1.17989
1.21996
1.29092
1.40229
1.53486
1.60566
1.06417
1.25552
1.23259
1.21662
1.21009
1.21493
1.22942
1.26266
1.32914
1.44815
1.61696
1.75544
1.19654
1.34881
1.31017
1.28158
1.26508
1.26569
1.27632
1.30339
1.36083
1.47101
1.66103
1.90336
1.39144
0.0338877
0.045623
0.0506207
0.0507532
0.0482085
0.0426048
0.0431777
0.0606342
0.169492
0.251108
0.284421
0.304089
0.0580128
0.106904
0.109442
0.105516
0.0890806
0.0952332
0.172387
0.198593
0.263648
0.340915
0.40507
0.473159
0.0715634
0.128792
0.168343
0.196911
0.206257
0.198015
0.235988
0.311289
0.402416
0.488636
0.56488
0.631484
0.0975387
0.188713
0.219383
0.222208
0.222114
0.250841
0.337773
0.43257
0.521935
0.599736
0.667536
0.724957
0.112984
0.220767
0.241978
0.241603
0.266036
0.344817
0.440617
0.532402
0.613242
0.681622
0.740398
0.790409
0.123628
0.241979
0.268951
0.285485
0.34636
0.437092
0.53009
0.614194
0.685489
0.74516
0.796286
0.840123
0.13163
0.2599
0.300822
0.351791
0.436158
0.530693
0.618649
0.694463
0.757259
0.808954
0.852644
0.890053
0.139648
0.285581
0.356568
0.449737
0.555224
0.652381
0.733795
0.799257
0.850873
0.891732
0.925174
0.953383
0.152399
0.329818
0.46376
0.605593
0.732526
0.830692
0.901612
0.951382
0.985735
1.00961
1.02707
1.04078
0.172207
0.408413
0.65288
0.85087
0.992454
1.08251
1.13401
1.15969
1.16865
1.16786
1.16234
1.15517
0.20657
0.55963
0.958575
1.20197
1.33095
1.39122
1.4096
1.40253
1.37941
1.3488
1.31597
1.284
0.592398
0.963267
1.38109
1.57358
1.64525
1.65765
1.64409
1.6066
1.55815
1.50399
1.44907
1.39621
0.317208
0.323505
0.32555
0.32447
0.320825
0.309495
0.294007
0.269738
0.239997
0.199157
0.1513
0.117268
0.534061
0.583178
0.618299
0.63376
0.632526
0.623486
0.6087
0.583875
0.538711
0.444408
0.326693
0.276881
0.684381
0.722205
0.744577
0.753647
0.754388
0.751581
0.745358
0.733776
0.707241
0.642872
0.488109
0.404712
0.77031
0.804279
0.827652
0.84225
0.851144
0.857758
0.864497
0.870425
0.867223
0.833516
0.696789
0.503553
0.830824
0.86232
0.885788
0.903052
0.917082
0.931445
0.949333
0.971189
0.986469
0.977992
0.874322
0.590518
0.876588
0.90626
0.930091
0.949896
0.968659
0.990304
1.01873
1.05539
1.09495
1.11368
1.05617
0.674256
0.921779
0.948558
0.971429
0.992213
1.01393
1.04085
1.07778
1.12767
1.1868
1.23246
1.2164
0.754931
0.977523
0.998566
1.01767
1.03657
1.05819
1.08717
1.12948
1.19033
1.2684
1.3403
1.3557
0.847411
1.05243
1.06325
1.07458
1.08793
1.10574
1.13278
1.17628
1.24462
1.34064
1.44041
1.47539
0.952451
1.14854
1.14402
1.14346
1.14789
1.1585
1.17989
1.21997
1.29095
1.40234
1.53492
1.60574
1.06423
1.25553
1.23259
1.21663
1.2101
1.21494
1.22944
1.26268
1.32917
1.4482
1.61703
1.75553
1.19661
1.34885
1.3102
1.28161
1.26511
1.26572
1.27635
1.30343
1.36087
1.47106
1.66109
1.90345
1.39151
0.0338758
0.0456018
0.0505949
0.0507241
0.0481737
0.0425743
0.0431568
0.0606721
0.169646
0.251179
0.284467
0.304136
0.0579921
0.106865
0.109387
0.105445
0.0889808
0.0952011
0.172407
0.198647
0.263776
0.341015
0.405203
0.47329
0.0715394
0.128759
0.168307
0.19684
0.206127
0.197948
0.236129
0.311432
0.402588
0.488799
0.56505
0.63165
0.0975286
0.188682
0.219327
0.22215
0.222076
0.250971
0.337962
0.432748
0.522114
0.599911
0.667712
0.725131
0.112986
0.220759
0.241966
0.241609
0.266157
0.344994
0.440798
0.532574
0.613413
0.681792
0.740573
0.790586
0.123641
0.242001
0.26899
0.285583
0.346506
0.437249
0.530246
0.614349
0.685645
0.745323
0.796457
0.840302
0.131635
0.259924
0.300875
0.351888
0.436275
0.530815
0.618778
0.694599
0.757405
0.80911
0.852812
0.89023
0.139646
0.285574
0.356591
0.449783
0.555284
0.652455
0.733887
0.799366
0.850999
0.891875
0.925332
0.953553
0.152382
0.329773
0.46373
0.605571
0.732517
0.830705
0.901652
0.95145
0.985829
1.00973
1.02721
1.04093
0.172178
0.408344
0.652818
0.850803
0.992393
1.08247
1.134
1.15971
1.1687
1.16795
1.16245
1.15529
0.206541
0.559582
0.958527
1.20191
1.33088
1.39116
1.40956
1.40252
1.37943
1.34885
1.31604
1.28409
0.592434
0.963303
1.38111
1.57358
1.64522
1.65762
1.64406
1.60658
1.55815
1.50401
1.44911
1.39626
0.317247
0.323542
0.325579
0.324498
0.320846
0.309512
0.294018
0.269748
0.240003
0.199158
0.151297
0.117264
0.534192
0.583299
0.618404
0.633847
0.632598
0.623549
0.608751
0.583915
0.538737
0.444424
0.326694
0.276877
0.684541
0.722354
0.744711
0.753767
0.754494
0.751671
0.745437
0.733842
0.707295
0.642912
0.488127
0.404714
0.770479
0.804442
0.827806
0.842394
0.851276
0.857878
0.864605
0.870516
0.867301
0.833576
0.696827
0.503564
0.831001
0.862495
0.885959
0.903216
0.917238
0.93159
0.949465
0.971308
0.986574
0.978075
0.874376
0.590536
0.87677
0.906444
0.930273
0.950075
0.968832
0.99047
1.01888
1.05554
1.09507
1.11379
1.05624
0.674283
0.921963
0.948746
0.971619
0.992402
1.01411
1.04103
1.07795
1.12783
1.18695
1.23258
1.21649
0.754965
0.977702
0.998752
1.01786
1.03676
1.05838
1.08735
1.12966
1.1905
1.26856
1.34044
1.3558
0.847455
1.05259
1.06342
1.07475
1.08811
1.10592
1.13296
1.17647
1.2448
1.34081
1.44057
1.4755
0.952504
1.14867
1.14416
1.14362
1.14805
1.15867
1.18006
1.22015
1.29113
1.40252
1.53509
1.60587
1.06429
1.25564
1.23271
1.21675
1.21023
1.21508
1.22958
1.26284
1.32934
1.44838
1.61721
1.75567
1.19668
1.34891
1.31028
1.2817
1.26521
1.26583
1.27647
1.30356
1.36102
1.47123
1.66128
1.9036
1.3916
0.0338871
0.0456201
0.0506184
0.0507503
0.0482039
0.0426013
0.0431778
0.0606586
0.169572
0.251154
0.284457
0.304126
0.0580131
0.106903
0.10944
0.105509
0.089064
0.0952419
0.172416
0.198626
0.263718
0.340975
0.405148
0.47324
0.0715647
0.128798
0.168356
0.196917
0.206244
0.198018
0.236051
0.311362
0.402505
0.488726
0.564977
0.631582
0.097543
0.188722
0.21939
0.222214
0.222125
0.2509
0.337856
0.432659
0.522029
0.599832
0.667636
0.725059
0.112991
0.220782
0.241995
0.241625
0.266088
0.344889
0.440699
0.532488
0.613333
0.681716
0.740497
0.790511
0.123636
0.241998
0.268977
0.285526
0.346415
0.437157
0.530163
0.614272
0.685572
0.745249
0.796382
0.840224
0.131635
0.259914
0.300845
0.351825
0.436202
0.530746
0.61871
0.694533
0.757336
0.809039
0.852736
0.890151
0.13965
0.285585
0.356581
0.44976
0.555255
0.652421
0.733845
0.799317
0.850942
0.891811
0.925262
0.953477
0.152398
0.329816
0.46377
0.60561
0.73255
0.830724
0.901653
0.951433
0.985796
1.00968
1.02715
1.04087
0.172206
0.408418
0.6529
0.850895
0.992481
1.08254
1.13404
1.15973
1.1687
1.16793
1.16241
1.15525
0.206574
0.559661
0.958623
1.20202
1.331
1.39126
1.40964
1.40257
1.37946
1.34886
1.31604
1.28407
0.592456
0.963362
1.38119
1.57367
1.64533
1.65772
1.64415
1.60665
1.55821
1.50405
1.44913
1.39627
0.317242
0.323539
0.32558
0.3245
0.320852
0.309519
0.294028
0.269756
0.24001
0.199166
0.151306
0.117274
0.534146
0.583261
0.618377
0.633831
0.63259
0.623545
0.608753
0.583922
0.538751
0.444436
0.326709
0.276893
0.684479
0.7223
0.744668
0.753732
0.754467
0.751654
0.745425
0.733836
0.707295
0.642917
0.488137
0.404727
0.770412
0.80438
0.827751
0.842346
0.851235
0.857844
0.864578
0.870497
0.867289
0.833572
0.696832
0.503575
0.830928
0.862425
0.885892
0.903155
0.917182
0.931541
0.949424
0.971274
0.986548
0.978061
0.874375
0.590543
0.876692
0.906367
0.930199
0.950004
0.968766
0.99041
1.01883
1.05549
1.09504
1.11376
1.05623
0.674286
0.921882
0.948665
0.971539
0.992324
1.01404
1.04096
1.07789
1.12778
1.1869
1.23255
1.21648
0.754965
0.977623
0.998671
1.01778
1.03668
1.05831
1.08728
1.1296
1.19044
1.26851
1.3404
1.35578
0.847452
1.05253
1.06335
1.07468
1.08804
1.10585
1.1329
1.1764
1.24474
1.34076
1.44052
1.47548
0.952496
1.14863
1.14411
1.14356
1.14799
1.15861
1.18
1.22009
1.29107
1.40246
1.53504
1.60584
1.06428
1.25561
1.23268
1.21672
1.2102
1.21504
1.22954
1.26279
1.32929
1.44832
1.61715
1.75562
1.19666
1.34892
1.31028
1.28169
1.2652
1.26581
1.27645
1.30353
1.36098
1.47117
1.6612
1.90354
1.39156
1.71783
1.71402
1.72934
1.74485
1.75249
1.74453
1.72237
1.68265
1.63278
1.57483
1.51425
1.45384
1.7353
1.68965
1.66934
1.66196
1.66004
1.65376
1.64059
1.61904
1.58622
1.54073
1.49093
1.43835
1.64359
1.60451
1.5706
1.54426
1.524
1.50667
1.4905
1.47352
1.45376
1.42912
1.39923
1.36502
1.51217
1.48226
1.44548
1.40776
1.37624
1.34988
1.32782
1.3102
1.29678
1.2859
1.27715
1.27163
1.39872
1.35443
1.32214
1.30379
1.30408
1.31375
1.33768
1.38626
1.47444
1.6407
1.92162
1.84236
1.39037
1.355
1.33167
1.32191
1.32532
1.33692
1.35995
1.39978
1.46416
1.56973
1.79283
1.79486
1.33784
1.32465
1.31975
1.32176
1.32969
1.344
1.36441
1.39358
1.43856
1.49736
1.63618
1.67046
1.27598
1.28823
1.29507
1.30269
1.31122
1.32281
1.33948
1.36144
1.39473
1.42829
1.50545
1.53171
1.71778
1.71401
1.72935
1.74489
1.75258
1.74463
1.72248
1.68277
1.6329
1.57493
1.51434
1.45392
1.73527
1.68965
1.66936
1.66201
1.66011
1.65385
1.64069
1.61915
1.58634
1.54084
1.49104
1.43844
1.64355
1.60454
1.57064
1.54432
1.52407
1.50675
1.4906
1.47362
1.45388
1.42924
1.39935
1.36513
1.51213
1.48227
1.44554
1.40783
1.37632
1.34997
1.32792
1.3103
1.29689
1.28602
1.27726
1.27174
1.39878
1.35448
1.32218
1.30383
1.30412
1.3138
1.33773
1.38631
1.4745
1.64077
1.92171
1.84245
1.39045
1.35508
1.33173
1.32197
1.32539
1.33698
1.36001
1.39984
1.46422
1.5698
1.79291
1.79494
1.33794
1.32474
1.31983
1.32184
1.32977
1.34407
1.36448
1.39364
1.43862
1.49742
1.63625
1.67053
1.27608
1.28832
1.29515
1.30277
1.31129
1.32288
1.33954
1.3615
1.39479
1.42835
1.50551
1.53177
1.71788
1.7141
1.72943
1.74494
1.75259
1.74463
1.72247
1.68276
1.63289
1.57494
1.51435
1.45394
1.73535
1.68973
1.66943
1.66206
1.66014
1.65387
1.6407
1.61915
1.58633
1.54083
1.49103
1.43845
1.64362
1.60461
1.5707
1.54437
1.52411
1.50678
1.49062
1.47363
1.45387
1.42923
1.39933
1.36511
1.51218
1.48232
1.44559
1.40787
1.37635
1.34999
1.32793
1.31031
1.29689
1.28601
1.27725
1.27174
1.39882
1.35453
1.32224
1.30391
1.3042
1.31389
1.33783
1.38644
1.47466
1.64095
1.92186
1.84257
1.39046
1.35509
1.33176
1.32202
1.32544
1.33705
1.36011
1.39995
1.46436
1.56997
1.79308
1.79509
1.33793
1.32474
1.31985
1.32188
1.32982
1.34415
1.36457
1.39376
1.43876
1.49758
1.63643
1.67071
1.27609
1.28835
1.29519
1.30283
1.31137
1.32298
1.33966
1.36165
1.39495
1.42853
1.50571
1.53197
1.71796
1.71417
1.7295
1.74503
1.7527
1.74474
1.72258
1.68285
1.63297
1.575
1.51441
1.45399
1.73549
1.68985
1.66955
1.66218
1.66027
1.654
1.64083
1.61927
1.58644
1.54093
1.49112
1.43853
1.64379
1.60476
1.57085
1.54451
1.52425
1.50692
1.49076
1.47377
1.45401
1.42936
1.39944
1.36522
1.51237
1.48251
1.44576
1.40803
1.37651
1.35015
1.32808
1.31046
1.29702
1.28613
1.27737
1.27184
1.39886
1.35456
1.32227
1.30392
1.30421
1.31389
1.33782
1.3864
1.4746
1.64087
1.92178
1.84251
1.39053
1.35516
1.33182
1.32206
1.32547
1.33706
1.36009
1.39991
1.46429
1.56988
1.79297
1.79499
1.33803
1.32483
1.31991
1.32192
1.32984
1.34414
1.36454
1.3937
1.43868
1.49748
1.6363
1.67059
1.27616
1.2884
1.29522
1.30283
1.31134
1.32292
1.33959
1.36155
1.39484
1.4284
1.50556
1.53184
1.3505
1.31094
1.27142
1.23562
1.20728
1.1853
1.16948
1.16021
1.15779
1.16174
1.17509
1.19869
1.22145
1.18371
1.14841
1.1175
1.09254
1.07296
1.05927
1.05209
1.05161
1.05659
1.07028
1.09362
1.12039
1.08961
1.06058
1.03388
1.00979
0.98822
0.970117
0.956154
0.946185
0.939711
0.939856
0.952205
1.03795
1.01549
0.992641
0.968677
0.942942
0.915429
0.887025
0.858283
0.828673
0.7975
0.768772
0.762284
1.22479
1.2375
1.2366
1.24296
1.25486
1.27366
1.29843
1.32632
1.35618
1.38275
1.40656
1.39372
1.12181
1.1354
1.12861
1.13678
1.15644
1.18499
1.21849
1.2511
1.27634
1.29181
1.29542
1.26693
0.99063
1.0194
1.01417
1.02565
1.05209
1.08752
1.12653
1.15932
1.18094
1.19184
1.18751
1.15824
0.813127
0.893479
0.900531
0.917453
0.948958
0.988308
1.02954
1.06171
1.08222
1.09206
1.08767
1.06509
1.35053
1.311
1.27151
1.23572
1.20738
1.18541
1.16959
1.16032
1.1579
1.16184
1.17518
1.19879
1.22151
1.18379
1.14851
1.11761
1.09265
1.07307
1.05937
1.05219
1.0517
1.05668
1.07037
1.09369
1.12047
1.0897
1.06069
1.03399
1.0099
0.988324
0.970214
0.956243
0.946267
0.939784
0.939925
0.95227
1.03803
1.01558
0.992747
0.968785
0.943048
0.915529
0.887116
0.858365
0.828744
0.797562
0.768826
0.762333
1.22487
1.23759
1.23667
1.24302
1.25493
1.27372
1.29848
1.32637
1.35623
1.3828
1.40661
1.39377
1.12188
1.13547
1.12867
1.13684
1.15649
1.18504
1.21854
1.25115
1.27638
1.29185
1.29546
1.26696
0.990691
1.01946
1.01422
1.0257
1.05214
1.08757
1.12658
1.15936
1.18098
1.19188
1.18755
1.15827
0.813174
0.89353
0.900582
0.917502
0.949005
0.988352
1.02958
1.06175
1.08226
1.0921
1.08771
1.06512
1.35057
1.31103
1.27154
1.23573
1.20739
1.18541
1.16959
1.16032
1.1579
1.16185
1.1752
1.19882
1.22154
1.18382
1.14853
1.11762
1.09266
1.07307
1.05938
1.05219
1.05172
1.05672
1.07042
1.09378
1.1205
1.08973
1.0607
1.034
1.0099
0.988331
0.970225
0.956262
0.9463
0.939841
0.939998
0.95238
1.03806
1.01561
0.992765
0.968798
0.943059
0.915542
0.887135
0.858395
0.828791
0.79763
0.768915
0.762446
1.22494
1.23767
1.23678
1.24316
1.25508
1.27388
1.29866
1.32656
1.35643
1.38301
1.40682
1.39397
1.122
1.13561
1.12884
1.13703
1.1567
1.18525
1.21876
1.25137
1.27661
1.29208
1.29567
1.26717
0.990853
1.01965
1.01444
1.02593
1.05237
1.08781
1.12682
1.1596
1.18121
1.19211
1.18776
1.15847
0.813351
0.893743
0.900817
0.91775
0.94926
0.98861
1.02984
1.06199
1.08249
1.09233
1.08791
1.0653
1.35076
1.31121
1.27171
1.23589
1.20755
1.18556
1.16972
1.16043
1.158
1.16192
1.17526
1.19885
1.22173
1.18399
1.14869
1.11777
1.09279
1.07319
1.05948
1.05227
1.05177
1.05674
1.07041
1.09372
1.12067
1.08988
1.06084
1.03413
1.01001
0.988421
0.970292
0.956303
0.946316
0.939838
0.939953
0.952281
1.03822
1.01575
0.992885
0.968901
0.943143
0.915604
0.887172
0.858403
0.828769
0.797582
0.76883
0.762335
1.22492
1.23763
1.23671
1.24306
1.25497
1.27376
1.29853
1.32642
1.35628
1.38286
1.40668
1.39384
1.1219
1.1355
1.12871
1.13688
1.15654
1.18509
1.21859
1.25121
1.27644
1.29192
1.29553
1.26704
0.990706
1.01948
1.01426
1.02574
1.05219
1.08762
1.12664
1.15942
1.18104
1.19194
1.18762
1.15834
0.813189
0.89355
0.900613
0.917544
0.949057
0.988413
1.02965
1.06181
1.08232
1.09217
1.08778
1.06518
0.965416
0.951026
0.933699
0.911432
0.882606
0.846695
0.803787
0.753381
0.692286
0.611073
0.479508
0.286138
0.896648
0.889437
0.876968
0.856025
0.823991
0.779346
0.720961
0.64714
0.55298
0.426801
0.234629
0.071951
0.828105
0.826974
0.818859
0.799445
0.765287
0.713835
0.643078
0.551492
0.436845
0.298872
0.146104
0.0509061
0.758436
0.762079
0.758
0.740676
0.706245
0.651488
0.574254
0.474812
0.356536
0.232368
0.125899
0.0497065
0.68773
0.69496
0.69438
0.679777
0.647119
0.592974
0.515588
0.417591
0.30726
0.202468
0.122047
0.0500256
0.616579
0.626418
0.628659
0.617247
0.588097
0.537954
0.465434
0.375018
0.277283
0.188746
0.121128
0.0494901
0.545746
0.557297
0.561764
0.553596
0.529086
0.485386
0.420865
0.341015
0.256457
0.180421
0.119556
0.0471865
0.475672
0.48815
0.494235
0.488949
0.469659
0.433754
0.378762
0.31033
0.237963
0.17172
0.114776
0.0433699
0.406018
0.418632
0.425755
0.422928
0.408444
0.380534
0.336067
0.278724
0.217188
0.159085
0.104844
0.0377694
0.334236
0.346218
0.353789
0.352833
0.342327
0.321667
0.288332
0.241819
0.189936
0.139236
0.0877487
0.0303512
0.250695
0.260978
0.268166
0.268469
0.261549
0.246639
0.224481
0.191742
0.148886
0.106428
0.0598883
0.0212318
0.112564
0.118522
0.123568
0.125598
0.124217
0.11929
0.110919
0.0986079
0.0814565
0.0594586
0.0359159
0.0138368
0.520241
0.754356
0.787472
0.813512
0.848904
0.890217
0.931786
0.963837
0.984627
0.995663
0.995227
0.981852
0.377386
0.624969
0.679426
0.714765
0.753025
0.794934
0.835992
0.868161
0.890169
0.903422
0.907828
0.903643
0.304931
0.519882
0.581665
0.622547
0.66242
0.703885
0.743784
0.775969
0.799446
0.8151
0.824095
0.827368
0.252865
0.433553
0.495111
0.537842
0.577958
0.618092
0.65624
0.688025
0.712551
0.730437
0.743178
0.752001
0.211206
0.361261
0.418818
0.460981
0.500089
0.538155
0.574036
0.604843
0.629696
0.649194
0.664682
0.677288
0.175734
0.298996
0.351415
0.391688
0.428881
0.464308
0.497487
0.52674
0.551223
0.571434
0.588567
0.603603
0.145331
0.243413
0.291358
0.329251
0.364031
0.396407
0.426551
0.453751
0.477267
0.497398
0.515132
0.531312
0.119352
0.192564
0.237145
0.272705
0.30481
0.333866
0.360735
0.385492
0.407569
0.426979
0.444456
0.460746
0.0959526
0.146205
0.187452
0.220821
0.249944
0.275447
0.298835
0.32085
0.341112
0.359305
0.375852
0.391437
0.0737847
0.104477
0.141045
0.171608
0.196859
0.218323
0.23793
0.256937
0.275096
0.291672
0.306665
0.320809
0.0529796
0.0679082
0.0956912
0.120142
0.139118
0.155196
0.170122
0.18546
0.201004
0.215383
0.22783
0.239503
0.0233895
0.0283683
0.041136
0.0531227
0.0616547
0.0683183
0.074365
0.0808044
0.0877559
0.0943931
0.100602
0.106577
0.965498
0.951118
0.933799
0.911535
0.882707
0.846791
0.803875
0.753459
0.692353
0.611129
0.479551
0.286165
0.896729
0.889524
0.877062
0.856122
0.824088
0.779439
0.721047
0.647217
0.553047
0.426857
0.234669
0.071967
0.828182
0.827056
0.818947
0.799536
0.765379
0.713925
0.643162
0.551569
0.436913
0.298928
0.146141
0.0509208
0.75851
0.762155
0.758081
0.74076
0.706332
0.651573
0.574337
0.474888
0.356602
0.23242
0.125933
0.049721
0.687803
0.695033
0.694456
0.679856
0.6472
0.593056
0.515667
0.417663
0.307321
0.202515
0.122079
0.0500399
0.616652
0.626487
0.628731
0.617321
0.588173
0.538031
0.465508
0.375085
0.277339
0.18879
0.121158
0.0495038
0.545817
0.557364
0.561832
0.553665
0.529157
0.485458
0.420934
0.341077
0.256509
0.180461
0.119586
0.0471994
0.475741
0.488215
0.494299
0.489014
0.469725
0.43382
0.378825
0.310387
0.238011
0.171757
0.114804
0.0433814
0.406083
0.418692
0.425815
0.422988
0.408504
0.380594
0.336124
0.278776
0.217231
0.159119
0.10487
0.0377794
0.334294
0.346273
0.353843
0.352886
0.34238
0.321719
0.288382
0.241864
0.189975
0.139266
0.0877702
0.0303592
0.250739
0.261023
0.268211
0.268512
0.261591
0.246681
0.224521
0.191779
0.148918
0.106451
0.0599036
0.0212374
0.112584
0.118544
0.123589
0.125617
0.124237
0.11931
0.110938
0.0986251
0.0814721
0.0594705
0.0359238
0.0138399
0.520271
0.754401
0.787521
0.813561
0.848951
0.890261
0.931827
0.963877
0.984665
0.9957
0.995262
0.981885
0.377407
0.62501
0.679473
0.714814
0.753072
0.794979
0.836034
0.868202
0.890207
0.90346
0.907864
0.903678
0.304949
0.519921
0.581711
0.622596
0.662468
0.703931
0.743828
0.77601
0.799486
0.815138
0.824133
0.827405
0.25288
0.43359
0.495156
0.53789
0.578006
0.618138
0.656284
0.688066
0.712591
0.730476
0.743217
0.75204
0.21122
0.361296
0.418862
0.461029
0.500138
0.538202
0.574081
0.604885
0.629736
0.649233
0.664721
0.677328
0.175746
0.299028
0.351456
0.391735
0.428929
0.464355
0.497532
0.526783
0.551264
0.571474
0.588606
0.603643
0.145341
0.243442
0.291397
0.329296
0.364077
0.396453
0.426595
0.453793
0.477307
0.497437
0.51517
0.531352
0.119361
0.192589
0.23718
0.272747
0.304854
0.33391
0.360777
0.385533
0.407608
0.427017
0.444494
0.460784
0.0959598
0.146226
0.187484
0.220858
0.249984
0.275486
0.298874
0.320887
0.341149
0.35934
0.375887
0.391473
0.0737903
0.104493
0.141072
0.17164
0.196893
0.218357
0.237963
0.25697
0.275129
0.291703
0.306696
0.320842
0.0529836
0.0679186
0.0957113
0.120167
0.139144
0.155221
0.170146
0.185485
0.201029
0.215407
0.227855
0.23953
0.0233907
0.0283714
0.0411444
0.0531336
0.0616659
0.0683289
0.0743749
0.0808143
0.0877661
0.0944031
0.100613
0.106588
0.965529
0.951146
0.933823
0.911555
0.882725
0.846811
0.8039
0.753494
0.692401
0.611189
0.479613
0.286207
0.896763
0.889556
0.877092
0.856149
0.824113
0.779465
0.721075
0.64725
0.553085
0.426894
0.234688
0.0719694
0.828219
0.827092
0.818982
0.79957
0.76541
0.713955
0.643191
0.551597
0.436938
0.298943
0.146141
0.0509188
0.758549
0.762195
0.758121
0.7408
0.706369
0.651607
0.574366
0.474911
0.356617
0.232426
0.125931
0.0497188
0.687844
0.695075
0.6945
0.679899
0.647241
0.593092
0.515696
0.417683
0.307333
0.202519
0.122077
0.0500377
0.616693
0.62653
0.628776
0.617366
0.588216
0.538069
0.465538
0.375106
0.27735
0.188793
0.121157
0.0495022
0.545858
0.557407
0.561877
0.55371
0.529201
0.485496
0.420965
0.341098
0.256521
0.180466
0.119585
0.0471979
0.47578
0.488256
0.494342
0.489057
0.469768
0.433857
0.378856
0.310408
0.238024
0.171763
0.114804
0.0433803
0.406121
0.41873
0.425856
0.423027
0.408545
0.380628
0.336154
0.278795
0.217244
0.159126
0.104869
0.0377786
0.334328
0.346306
0.353878
0.352921
0.342416
0.321751
0.288408
0.241882
0.189987
0.139272
0.0877706
0.0303581
0.250766
0.26105
0.268238
0.268539
0.261619
0.246706
0.224542
0.191795
0.148927
0.106456
0.0599038
0.0212366
0.112594
0.118555
0.1236
0.12563
0.124249
0.119321
0.110948
0.0986332
0.0814773
0.0594732
0.0359243
0.0138397
0.520411
0.754622
0.787763
0.813814
0.84921
0.890521
0.932079
0.964117
0.984894
0.995915
0.995452
0.98205
0.37753
0.625223
0.679709
0.715061
0.753325
0.795232
0.836278
0.868432
0.890421
0.903658
0.90804
0.903826
0.305059
0.520117
0.581932
0.622831
0.662709
0.704171
0.74406
0.776226
0.799683
0.815318
0.82429
0.827535
0.252978
0.433766
0.495359
0.538107
0.578229
0.618361
0.6565
0.688266
0.712773
0.730637
0.743356
0.752153
0.211306
0.361451
0.419043
0.461225
0.500341
0.538405
0.574278
0.605067
0.629901
0.649378
0.664843
0.677424
0.17582
0.299162
0.351615
0.391909
0.429111
0.464538
0.49771
0.526947
0.551412
0.571603
0.588713
0.603725
0.145404
0.243555
0.291534
0.329447
0.364236
0.396614
0.426752
0.453938
0.477438
0.49755
0.515263
0.531423
0.119413
0.192681
0.237295
0.272875
0.304991
0.33405
0.360913
0.385659
0.407721
0.427115
0.444574
0.460845
0.0960025
0.146297
0.187576
0.220965
0.250099
0.275605
0.29899
0.320995
0.341245
0.359424
0.375955
0.391524
0.0738232
0.104545
0.141143
0.171724
0.196985
0.218454
0.238058
0.257058
0.275208
0.291772
0.306752
0.320883
0.053007
0.0679522
0.0957619
0.120227
0.139211
0.155293
0.170217
0.185551
0.201087
0.215458
0.227897
0.23956
0.0234005
0.0283834
0.0411669
0.0531604
0.0616967
0.0683619
0.0744081
0.0808453
0.0877938
0.0944277
0.100633
0.106603
0.965669
0.951263
0.93392
0.911632
0.882784
0.846848
0.803914
0.753482
0.692364
0.611132
0.479549
0.286165
0.896885
0.889653
0.877166
0.856203
0.824149
0.779483
0.721074
0.647232
0.553054
0.42686
0.234677
0.0719691
0.828324
0.827171
0.819037
0.799604
0.765428
0.713958
0.643182
0.55158
0.43692
0.298935
0.14615
0.0509222
0.758638
0.762259
0.758159
0.740817
0.706372
0.651599
0.574352
0.474897
0.35661
0.232428
0.125939
0.0497219
0.687918
0.695125
0.694524
0.679904
0.647232
0.593075
0.515678
0.417671
0.307329
0.202522
0.122082
0.0500404
0.616755
0.626569
0.628791
0.617362
0.588199
0.538046
0.465516
0.375092
0.277345
0.188794
0.12116
0.0495033
0.545909
0.557437
0.561885
0.5537
0.52918
0.48547
0.42094
0.341082
0.256513
0.180463
0.119585
0.0471985
0.475822
0.488279
0.494345
0.489044
0.469745
0.43383
0.37883
0.31039
0.238013
0.171757
0.114802
0.04338
0.406155
0.418749
0.425856
0.423015
0.408521
0.380603
0.336128
0.278777
0.217231
0.159118
0.104867
0.0377777
0.334355
0.346321
0.353877
0.352909
0.342395
0.321728
0.288385
0.241865
0.189973
0.139263
0.0877668
0.0303574
0.250786
0.26106
0.268237
0.268529
0.261603
0.246688
0.224524
0.191779
0.148915
0.106448
0.0599005
0.0212357
0.112606
0.118562
0.123602
0.125626
0.124242
0.119313
0.110939
0.0986251
0.08147
0.0594681
0.0359213
0.0138385
0.520286
0.754423
0.787551
0.813601
0.849001
0.89032
0.931892
0.963943
0.98473
0.995765
0.99533
0.981942
0.377422
0.625031
0.6795
0.714849
0.753118
0.795035
0.836095
0.868265
0.89027
0.903521
0.907927
0.903733
0.304962
0.519938
0.581733
0.622625
0.662507
0.70398
0.743883
0.776068
0.799543
0.815195
0.824191
0.827453
0.252892
0.433603
0.495172
0.537911
0.578037
0.618179
0.656332
0.688118
0.712644
0.730529
0.743271
0.752079
0.211231
0.361305
0.418871
0.461043
0.500159
0.538233
0.57412
0.604929
0.629783
0.649283
0.664773
0.67735
0.175755
0.299034
0.35146
0.391741
0.428942
0.464377
0.497562
0.526819
0.551305
0.571518
0.58865
0.603655
0.145348
0.243444
0.291396
0.329296
0.364082
0.396466
0.426617
0.453821
0.477341
0.497474
0.515205
0.531357
0.119367
0.19259
0.237176
0.272741
0.304852
0.333916
0.360791
0.385554
0.407634
0.427047
0.444519
0.460785
0.095965
0.146225
0.187478
0.22085
0.249978
0.275487
0.298882
0.320902
0.341169
0.359363
0.375905
0.39147
0.0737945
0.104492
0.141065
0.17163
0.196885
0.218355
0.237968
0.25698
0.275143
0.291719
0.306708
0.320835
0.0529869
0.0679182
0.0957051
0.120158
0.139136
0.155219
0.170149
0.185493
0.201039
0.215419
0.227863
0.239521
0.0233926
0.0283721
0.0411422
0.0531297
0.061663
0.0683287
0.0743777
0.0808194
0.0877723
0.0944101
0.100618
0.106585
)
;

boundaryField
{
    rotor
    {
        type            kqRWallFunction;
        value           nonuniform List<scalar> 
192
(
0.033912
0.0456435
0.0506327
0.0507603
0.0482065
0.0426016
0.0431781
0.0606732
0.169606
0.251145
0.284432
0.304098
0.317208
0.323501
0.325539
0.324459
0.320809
0.309478
0.293987
0.26972
0.239979
0.199141
0.151284
0.117253
0.0338877
0.045623
0.0506207
0.0507532
0.0482085
0.0426048
0.0431777
0.0606342
0.169492
0.251108
0.284421
0.304089
0.317208
0.323505
0.32555
0.32447
0.320825
0.309495
0.294007
0.269738
0.239997
0.199157
0.1513
0.117268
0.0338758
0.0456018
0.0505949
0.0507241
0.0481737
0.0425743
0.0431568
0.0606721
0.169646
0.251179
0.284467
0.304136
0.317247
0.323542
0.325579
0.324498
0.320846
0.309512
0.294018
0.269748
0.240003
0.199158
0.151297
0.117264
0.0338871
0.0456201
0.0506184
0.0507503
0.0482039
0.0426013
0.0431778
0.0606586
0.169572
0.251154
0.284457
0.304126
0.317242
0.323539
0.32558
0.3245
0.320852
0.309519
0.294028
0.269756
0.24001
0.199166
0.151306
0.117274
0.033912
0.0580236
0.0715712
0.0975515
0.112999
0.123646
0.131636
0.139643
0.152378
0.172173
0.206532
0.592385
0.117274
0.276893
0.404727
0.503575
0.590543
0.674286
0.754965
0.847452
0.952496
1.06428
1.19666
1.39156
0.0338877
0.0580128
0.0715634
0.0975387
0.112984
0.123628
0.13163
0.139648
0.152399
0.172207
0.20657
0.592398
0.117253
0.276853
0.404681
0.503517
0.590478
0.674212
0.754884
0.847361
0.952396
1.06417
1.19654
1.39144
0.0338758
0.0579921
0.0715394
0.0975286
0.112986
0.123641
0.131635
0.139646
0.152382
0.172178
0.206541
0.592434
0.117268
0.276881
0.404712
0.503553
0.590518
0.674256
0.754931
0.847411
0.952451
1.06423
1.19661
1.39151
0.0338871
0.0580131
0.0715647
0.097543
0.112991
0.123636
0.131635
0.13965
0.152398
0.172206
0.206574
0.592456
0.117264
0.276877
0.404714
0.503564
0.590536
0.674283
0.754965
0.847455
0.952504
1.06429
1.19668
1.3916
)
;
    }
    stator
    {
        type            kqRWallFunction;
        value           nonuniform List<scalar> 
192
(
0.112564
0.118522
0.123568
0.125598
0.124217
0.11929
0.110919
0.0986079
0.0814565
0.0594586
0.0359159
0.0138368
0.0233895
0.0283683
0.041136
0.0531227
0.0616547
0.0683183
0.074365
0.0808044
0.0877559
0.0943931
0.100602
0.106577
0.112584
0.118544
0.123589
0.125617
0.124237
0.11931
0.110938
0.0986251
0.0814721
0.0594705
0.0359238
0.0138399
0.0233907
0.0283714
0.0411444
0.0531336
0.0616659
0.0683289
0.0743749
0.0808143
0.0877661
0.0944031
0.100613
0.106588
0.112594
0.118555
0.1236
0.12563
0.124249
0.119321
0.110948
0.0986332
0.0814773
0.0594732
0.0359243
0.0138397
0.0234005
0.0283834
0.0411669
0.0531604
0.0616967
0.0683619
0.0744081
0.0808453
0.0877938
0.0944277
0.100633
0.106603
0.112606
0.118562