/*--------------------------------*- C++ -*----------------------------------*\
| =========                 |                                                 |
| \\      /  F ield         | OpenFOAM: The Open Source CFD Toolbox           |
|  \\    /   O peration     | Version:  v1912                                 |
|   \\  /    A nd           | Website:  www.openfoam.com                      |
|    \\/     M anipulation  |                                                 |
\*---------------------------------------------------------------------------*/
FoamFile
{
    version     2.0;
    format      ascii;
    class       volScalarField;
    location    "450";
    object      nut;
}
// * * * * * * * * * * * * * * * * * * * * * * * * * * * * * * * * * * * * * //

dimensions      [0 2 -1 0 0 0 0];


internalField   nonuniform List<scalar> 
3072
(
2.87689e-05
6.11297e-05
6.43751e-05
6.44619e-05
6.28371e-05
5.9066e-05
5.9427e-05
7.02311e-05
0.000117378
0.000143179
0.000152452
0.000157644
4.20405e-05
0.000159359
0.000204058
0.000199253
0.000127524
7.52278e-05
0.000126684
0.000151963
0.000214005
0.000306556
0.00041738
0.000557563
5.15931e-05
0.000208543
0.000267892
0.00024523
0.000214826
0.000193647
0.0002498
0.000380115
0.000550356
0.000766062
0.000984845
0.00118713
6.59574e-05
0.000306415
0.000319019
0.000288594
0.000272482
0.000331656
0.000516255
0.000739075
0.000983769
0.00124272
0.00148263
0.00169176
7.71535e-05
0.000360679
0.000375647
0.000359844
0.000412012
0.000609401
0.000851767
0.00110551
0.00136671
0.00162907
0.00186639
0.00207242
8.716e-05
0.00042062
0.000475593
0.000511192
0.000671501
0.00091049
0.00116495
0.00142752
0.00168414
0.00192873
0.0021495
0.00234357
9.66115e-05
0.000500387
0.00062313
0.000748532
0.00097065
0.00121963
0.00146957
0.00171647
0.00195588
0.00217618
0.0023736
0.00254697
0.000106398
0.000614187
0.000835325
0.0010652
0.0013104
0.00154853
0.00177516
0.00198829
0.0021875
0.00236746
0.002528
0.00267031
0.00011835
0.000753818
0.00110882
0.00138929
0.00163019
0.00184174
0.00202753
0.00219239
0.00234097
0.00247523
0.00259721
0.00270848
0.000133441
0.000858055
0.00129543
0.00159745
0.00182379
0.00200719
0.00216216
0.00229637
0.00241319
0.0025174
0.00261229
0.00270006
0.000154488
0.000798426
0.0013658
0.00169983
0.00193303
0.00211103
0.00225333
0.00237082
0.00246495
0.00254582
0.00261789
0.00268429
0.000275695
0.000771845
0.00144508
0.00182633
0.00204228
0.00220869
0.00234915
0.00244746
0.00252406
0.00258549
0.00263733
0.00268353
0.000161031
0.000162629
0.000163156
0.000162887
0.000161978
0.000159096
0.000155072
0.000148535
0.000140116
0.000127637
0.000111251
5.34903e-05
0.000699945
0.0008237
0.000916389
0.000948608
0.000926527
0.00087147
0.000782458
0.000658728
0.000505496
0.000309002
0.000156081
9.18447e-05
0.00135827
0.00148492
0.0015568
0.0015724
0.00153475
0.0014501
0.0013134
0.00112508
0.000883348
0.000591255
0.000263934
0.000122713
0.00186409
0.00199333
0.00207559
0.0021086
0.00208966
0.00201355
0.0018727
0.00165683
0.00135648
0.000966544
0.00047264
0.0001499
0.00224384
0.00237802
0.00247242
0.00252392
0.00252787
0.0024769
0.00235723
0.00214698
0.00180362
0.00132617
0.000695529
0.000176431
0.00251005
0.00264562
0.00274894
0.00281786
0.00284837
0.00283272
0.00275247
0.00257584
0.00225566
0.00172496
0.000979569
0.000203596
0.00269511
0.00281884
0.00291893
0.00299621
0.00305034
0.0030755
0.00305257
0.00293879
0.00266058
0.00212197
0.00127426
0.00023138
0.00279319
0.00289919
0.00299091
0.00307083
0.00314061
0.00320065
0.00323757
0.00320735
0.00301524
0.0025054
0.00156981
0.000262041
0.00280963
0.00290176
0.00298755
0.00306663
0.00314314
0.00322719
0.00331394
0.00337223
0.00329755
0.00286566
0.00183388
0.000295725
0.00278238
0.00286133
0.00294246
0.00302531
0.00310369
0.00318807
0.00330379
0.00343598
0.00349489
0.00320634
0.0021419
0.000331538
0.00274814
0.00281268
0.00288203
0.00296376
0.00306142
0.00314245
0.00325526
0.0034215
0.00359311
0.00350437
0.00251285
0.000371645
0.00272923
0.00277977
0.00283906
0.0029121
0.00302067
0.00311474
0.00321651
0.00338428
0.00360937
0.00370159
0.00294825
0.000422448
2.87588e-05
6.1117e-05
6.43682e-05
6.44578e-05
6.28388e-05
5.90685e-05
5.9427e-05
7.02092e-05
0.000117338
0.000143168
0.000152449
0.000157642
4.20359e-05
0.000159323
0.000204073
0.000199324
0.000127658
7.52699e-05
0.000126654
0.000151915
0.000213925
0.000306476
0.000417243
0.000557427
5.15895e-05
0.000208518
0.00026794
0.00024534
0.000214929
0.00019367
0.000249646
0.000379947
0.000550137
0.000765822
0.000984604
0.00118691
6.59523e-05
0.000306438
0.000319103
0.000288623
0.000272456
0.000331437
0.00051598
0.000738784
0.000983468
0.00124242
0.00148235
0.00169151
7.71478e-05
0.000360686
0.00037562
0.000359769
0.000411772
0.000609038
0.000851455
0.00110519
0.00136638
0.00162876
0.00186611
0.00207217
8.71533e-05
0.000420562
0.000475466
0.000510954
0.000671169
0.000910176
0.00116463
0.00142721
0.00168384
0.00192844
0.00214923
0.00234333
9.66092e-05
0.000500339
0.000622981
0.000748301
0.000970394
0.00121938
0.00146931
0.0017162
0.00195562
0.00217593
0.00237337
0.00254676
0.0001064
0.000614206
0.000835294
0.00106512
0.00131029
0.00154839
0.00177499
0.0019881
0.0021873
0.00236727
0.00252783
0.00267015
0.000118358
0.000753947
0.00110892
0.00138935
0.00163021
0.00184173
0.00202747
0.00219231
0.00234088
0.00247513
0.00259712
0.00270839
0.000133454
0.000858202
0.00129556
0.00159757
0.00182389
0.00200727
0.00216222
0.00229641
0.0024132
0.0025174
0.00261228
0.00270005
0.000154503
0.000798521
0.00136592
0.00169998
0.00193321
0.0021112
0.0022535
0.00237096
0.00246506
0.00254591
0.00261796
0.00268435
0.000275698
0.000771895
0.00144518
0.00182648
0.00204248
0.0022089
0.00234937
0.00244767
0.00252425
0.00258566
0.00263748
0.00268366
0.000161031
0.00016263
0.000163159
0.00016289
0.000161982
0.0001591
0.000155078
0.00014854
0.000140121
0.000127642
0.000111257
5.34937e-05
0.000699811
0.000823586
0.000916295
0.00094855
0.000926495
0.000871448
0.000782449
0.000658731
0.000505506
0.000309011
0.000156088
9.18492e-05
0.00135807
0.00148475
0.00155667
0.0015723
0.00153469
0.00145006
0.00131338
0.00112508
0.000883358
0.000591272
0.000263942
0.000122718
0.00186387
0.00199314
0.00207544
0.00210848
0.00208957
0.00201349
0.00187267
0.00165682
0.00135648
0.000966556
0.000472653
0.000149905
0.00224362
0.00237783
0.00247226
0.00252379
0.00252777
0.00247684
0.0023572
0.00214697
0.00180363
0.00132618
0.000695547
0.000176437
0.00250983
0.00264543
0.00274878
0.00281773
0.00284827
0.00283265
0.00275243
0.00257583
0.00225568
0.00172498
0.000979589
0.000203602
0.00269492
0.00281868
0.00291879
0.0029961
0.00305026
0.00307544
0.00305255
0.00293879
0.0026606
0.00212201
0.00127429
0.000231387
0.00279305
0.00289907
0.00299081
0.00307075
0.00314056
0.00320062
0.00323756
0.00320737
0.00301528
0.00250544
0.00156984
0.000262049
0.00280955
0.00290169
0.00298749
0.00306659
0.00314312
0.00322718
0.00331396
0.00337227
0.00329761
0.00286573
0.00183393
0.000295733
0.00278237
0.00286132
0.00294246
0.00302532
0.0031037
0.0031881
0.00330384
0.00343606
0.00349498
0.00320644
0.00214197
0.000331548
0.00274819
0.00281273
0.00288208
0.00296382
0.00306149
0.00314252
0.00325535
0.00342161
0.00359323
0.00350449
0.00251294
0.000371655
0.00272935
0.00277987
0.00283916
0.00291221
0.00302079
0.00311486
0.00321664
0.00338442
0.00360954
0.00370175
0.00294836
0.000422459
2.87537e-05
6.11029e-05
6.43517e-05
6.44394e-05
6.28164e-05
5.90477e-05
5.94128e-05
7.02292e-05
0.000117389
0.000143188
0.000152461
0.000157654
4.20287e-05
0.000159295
0.000203977
0.000199162
0.000127441
7.51889e-05
0.000126676
0.000151991
0.000214044
0.000306606
0.000417459
0.000557652
5.15813e-05
0.000208471
0.000267819
0.000245152
0.000214745
0.000193613
0.000249898
0.000380197
0.000550471
0.0007662
0.000985003
0.0011873
6.5949e-05
0.000306351
0.000318956
0.000288556
0.000272466
0.000331757
0.000516395
0.000739214
0.000983933
0.00124291
0.00148284
0.00169199
7.71483e-05
0.000360656
0.00037564
0.000359858
0.000412121
0.000609559
0.000851918
0.00110568
0.00136691
0.0016293
0.00186664
0.00207269
8.71575e-05
0.000420637
0.000475643
0.000511292
0.000671659
0.000910651
0.00116513
0.00142773
0.00168438
0.00192899
0.00214979
0.00234389
9.66104e-05
0.000500435
0.000623222
0.00074869
0.000970833
0.00121982
0.00146979
0.00171672
0.00195615
0.00217647
0.00237392
0.00254731
0.000106399
0.000614239
0.000835454
0.00106537
0.00131059
0.00154875
0.0017754
0.00198856
0.00218779
0.00236777
0.00252834
0.00267067
0.000118351
0.000753868
0.00110893
0.00138943
0.00163036
0.00184194
0.00202776
0.00219264
0.00234124
0.00247553
0.00259753
0.00270883
0.000133443
0.000858089
0.00129551
0.00159757
0.00182393
0.00200736
0.00216235
0.00229659
0.00241343
0.00251767
0.00261259
0.00270039
0.000154492
0.000798456
0.00136588
0.00169994
0.00193317
0.00211119
0.00225352
0.00237103
0.00246518
0.00254607
0.00261816
0.00268459
0.000275707
0.000771904
0.00144517
0.00182646
0.00204244
0.00220887
0.00234935
0.00244768
0.0025243
0.00258574
0.00263759
0.00268381
0.000161041
0.000162639
0.000163166
0.000162897
0.000161987
0.000159105
0.00015508
0.000148543
0.000140122
0.000127642
0.000111256
5.34928e-05
0.000700049
0.000823812
0.000916511
0.000948733
0.000926647
0.000871584
0.00078256
0.000658809
0.000505552
0.000309031
0.000156092
9.18485e-05
0.00135846
0.00148512
0.00155701
0.0015726
0.00153495
0.00145028
0.00131356
0.00112522
0.000883451
0.000591324
0.000263958
0.000122718
0.00186434
0.00199359
0.00207586
0.00210887
0.00208992
0.00201379
0.00187292
0.00165702
0.00135662
0.000966642
0.000472685
0.000149907
0.00224414
0.00237833
0.00247274
0.00252424
0.00252819
0.00247721
0.00235752
0.00214723
0.00180383
0.00132631
0.000695593
0.00017644
0.00251038
0.00264597
0.00274931
0.00281823
0.00284875
0.00283309
0.00275282
0.00257615
0.00225592
0.00172514
0.000979657
0.000203606
0.00269548
0.00281923
0.00291933
0.00299663
0.00305077
0.00307593
0.00305299
0.00293917
0.00266091
0.0021222
0.00127438
0.000231392
0.00279357
0.0028996
0.00299134
0.00307128
0.00314108
0.00320113
0.00323805
0.00320781
0.00301564
0.00250568
0.00156994
0.000262056
0.00281001
0.00290217
0.00298798
0.00306709
0.00314362
0.00322769
0.00331446
0.00337276
0.00329803
0.00286601
0.00183405
0.000295741
0.00278274
0.00286172
0.00294289
0.00302577
0.00310416
0.00318858
0.00330434
0.00343656
0.00349545
0.00320678
0.0021421
0.000331557
0.00274847
0.00281304
0.00288242
0.0029642
0.00306189
0.00314294
0.00325581
0.00342212
0.00359374
0.00350489
0.00251309
0.000371665
0.00272953
0.00278009
0.00283941
0.00291251
0.00302112
0.00311521
0.00321704
0.00338489
0.00361008
0.00370223
0.00294855
0.000422473
2.87585e-05
6.1115e-05
6.43667e-05
6.4456e-05
6.28358e-05
5.90661e-05
5.9427e-05
7.02228e-05
0.000117366
0.000143182
0.000152459
0.000157652
4.20361e-05
0.000159322
0.00020406
0.000199288
0.000127599
7.52505e-05
0.000126675
0.000151948
0.00021398
0.000306538
0.000417347
0.000557541
5.15901e-05
0.00020852
0.000267927
0.000245306
0.000214895
0.000193671
0.000249732
0.000380051
0.00055028
0.000765995
0.000984795
0.00118711
6.5954e-05
0.000306431
0.00031908
0.000288621
0.000272474
0.000331547
0.00051613
0.000738961
0.000983669
0.00124265
0.00148258
0.00169175
7.715e-05
0.00036069
0.000375637
0.000359803
0.000411879
0.0006092
0.000851623
0.00110538
0.00136661
0.001629
0.00186636
0.00207242
8.71559e-05
0.000420586
0.000475509
0.000511041
0.000671296
0.000910322
0.0011648
0.0014274
0.00168406
0.00192867
0.00214948
0.00234359
9.66109e-05
0.000500354
0.000623021
0.000748371
0.000970493
0.0012195
0.00146946
0.00171639
0.00195583
0.00217615
0.00237361
0.00254701
0.000106401
0.000614199
0.0008353
0.00106516
0.00131036
0.00154849
0.00177513
0.00198828
0.0021875
0.00236749
0.00252807
0.0026704
0.000118358
0.000753924
0.00110892
0.00138939
0.00163029
0.00184183
0.00202761
0.00219248
0.00234106
0.00247534
0.00259734
0.00270863
0.000133454
0.0008582
0.0012956
0.00159764
0.00182398
0.00200738
0.00216236
0.00229656
0.00241338
0.00251759
0.00261249
0.00270028
0.000154504
0.000798556
0.00136599
0.00170007
0.00193331
0.00211132
0.00225364
0.00237111
0.00246523
0.0025461
0.00261817
0.00268457
0.000275712
0.00077197
0.00144528
0.00182661
0.00204261
0.00220905
0.00234952
0.00244784
0.00252443
0.00258585
0.00263768
0.00268388
0.00016104
0.000162638
0.000163166
0.000162898
0.000161989
0.000159107
0.000155083
0.000148545
0.000140125
0.000127645
0.000111259
5.34951e-05
0.000699936
0.000823711
0.000916421
0.000948662
0.000926592
0.000871537
0.000782525
0.000658789
0.000505547
0.000309032
0.000156095
9.18512e-05
0.00135827
0.00148495
0.00155686
0.00157248
0.00153485
0.00145021
0.00131351
0.00112518
0.000883433
0.000591318
0.000263957
0.00012272
0.00186411
0.00199338
0.00207567
0.0021087
0.00208979
0.00201368
0.00187284
0.00165696
0.00135659
0.000966624
0.000472683
0.000149908
0.00224388
0.00237809
0.00247252
0.00252404
0.00252802
0.00247707
0.00235741
0.00214715
0.00180377
0.00132628
0.000695589
0.000176441
0.0025101
0.0026457
0.00274906
0.002818
0.00284855
0.00283292
0.00275268
0.00257605
0.00225585
0.00172511
0.000979646
0.000203607
0.00269519
0.00281895
0.00291907
0.00299639
0.00305055
0.00307573
0.00305282
0.00293904
0.00266081
0.00212215
0.00127436
0.000231392
0.00279331
0.00289934
0.0029911
0.00307104
0.00314086
0.00320093
0.00323787
0.00320766
0.00301552
0.00250562
0.00156992
0.000262055
0.0028098
0.00290196
0.00298777
0.00306688
0.00314342
0.0032275
0.00331428
0.00337259
0.00329789
0.00286593
0.00183402
0.00029574
0.00278261
0.00286158
0.00294274
0.00302561
0.003104
0.00318842
0.00330418
0.00343639
0.00349529
0.00320666
0.00214207
0.000331555
0.00274843
0.00281298
0.00288235
0.00296411
0.00306179
0.00314283
0.00325568
0.00342195
0.00359355
0.00350473
0.00251304
0.000371662
0.00272958
0.00278013
0.00283943
0.0029125
0.00302108
0.00311516
0.00321695
0.00338474
0.00360985
0.00370201
0.00294846
0.000422467
0.00171487
0.00180064
0.00194086
0.00209917
0.00224056
0.00236403
0.00246886
0.00254056
0.00259569
0.00263711
0.00266992
0.00269782
0.00281637
0.00263174
0.00256447
0.00255481
0.00257272
0.00259871
0.00262229
0.0026455
0.00267032
0.00268899
0.0027042
0.00271869
0.00355692
0.00332183
0.00314173
0.00301489
0.00292055
0.00285677
0.0028136
0.00278788
0.00277532
0.00276063
0.00274953
0.00275378
0.00381817
0.00363397
0.00344175
0.00326559
0.00312326
0.00300918
0.00291949
0.00285628
0.00282046
0.00280473
0.00280749
0.00283197
0.00272853
0.00276989
0.00282531
0.00289914
0.00301099
0.00311513
0.0032161
0.0033822
0.00360782
0.0038622
0.00387553
0.00180907
0.00274365
0.00278776
0.0028502
0.00293486
0.00304182
0.00315404
0.00326363
0.00342113
0.00362429
0.00386188
0.00426976
0.00315189
0.00278753
0.00285113
0.00293348
0.00302691
0.00313063
0.00325174
0.00337445
0.00351468
0.00368271
0.00385804
0.00422916
0.00383154
0.00289221
0.00299496
0.00308905
0.0031947
0.00330663
0.00342867
0.00355255
0.00367358
0.00380109
0.00390979
0.00413643
0.00400882
0.00171491
0.00180072
0.00194096
0.00209932
0.00224077
0.00236424
0.00246911
0.00254081
0.00259593
0.00263733
0.00267012
0.00269801
0.0028164
0.00263185
0.00256459
0.002555
0.00257294
0.00259894
0.00262254
0.00264576
0.00267059
0.00268925
0.00270445
0.00271892
0.00355684
0.00332201
0.00314193
0.00301511
0.00292077
0.00285701
0.00281385
0.00278815
0.0027756
0.00276091
0.0027498
0.00275403
0.00381804
0.00363407
0.00344202
0.00326586
0.00312353
0.00300944
0.00291976
0.00285655
0.00282075
0.00280501
0.00280776
0.00283222
0.00272871
0.00277005
0.00282546
0.0028993
0.00301115
0.00311529
0.00321627
0.00338238
0.00360802
0.00386241
0.00387572
0.00180915
0.00274387
0.00278796
0.0028504
0.00293505
0.00304202
0.00315425
0.00326384
0.00342135
0.00362452
0.00386212
0.00427001
0.00315205
0.00278777
0.00285136
0.00293369
0.00302713
0.00313085
0.00325197
0.00337469
0.00351493
0.00368297
0.0038583
0.00422943
0.00383176
0.00289245
0.00299518
0.00308928
0.00319493
0.00330687
0.00342893
0.00355282
0.00367385
0.00380136
0.00391006
0.0041367
0.00400905
0.001715
0.0018008
0.00194103
0.00209937
0.00224078
0.00236426
0.0024691
0.00254081
0.00259595
0.00263737
0.00267018
0.0026981
0.00281656
0.00263198
0.00256472
0.00255509
0.002573
0.00259899
0.00262258
0.00264579
0.00267061
0.00268928
0.00270448
0.00271896
0.00355703
0.00332218
0.00314208
0.00301523
0.00292088
0.0028571
0.00281392
0.0027882
0.00277563
0.00276093
0.00274982
0.00275406
0.00381824
0.00363425
0.00344217
0.00326599
0.00312364
0.00300954
0.00291984
0.00285662
0.00282079
0.00280505
0.00280781
0.00283228
0.00272882
0.0027702
0.00282564
0.00289954
0.00301143
0.00311559
0.00321664
0.00338283
0.00360856
0.00386297
0.00387603
0.00180921
0.00274394
0.00278806
0.00285054
0.00293525
0.00304226
0.00315453
0.00326421
0.0034218
0.00362505
0.00386273
0.00427051
0.00315228
0.00278783
0.00285146
0.00293387
0.00302734
0.00313113
0.00325232
0.00337508
0.00351541
0.00368351
0.00385891
0.00423006
0.0038322
0.00289257
0.00299536
0.00308953
0.00319526
0.00330726
0.0034294
0.0035533
0.00367441
0.00380195
0.00391069
0.00413734
0.00400959
0.00171502
0.00180085
0.00194112
0.0020995
0.00224095
0.00236444
0.0024693
0.00254101
0.00259614
0.00263755
0.00267034
0.00269824
0.00281672
0.00263212
0.00256486
0.00255525
0.00257318
0.00259919
0.00262278
0.002646
0.00267082
0.00268948
0.00270467
0.00271915
0.00355738
0.00332246
0.00314232
0.00301545
0.00292111
0.00285732
0.00281415
0.00278843
0.00277585
0.00276114
0.00275001
0.00275427
0.0038187
0.00363463
0.00344248
0.00326626
0.00312389
0.00300978
0.00292007
0.00285684
0.00282098
0.00280522
0.00280796
0.00283242
0.00272894
0.00277031
0.00282573
0.00289957
0.00301143
0.00311558
0.00321656
0.00338266
0.0036083
0.00386267
0.00387584
0.00180918
0.00274411
0.00278821
0.00285065
0.0029353
0.00304227
0.0031545
0.00326408
0.00342158
0.00362475
0.00386236
0.00427017
0.0031521
0.002788
0.00285159
0.00293391
0.00302735
0.00313105
0.00325218
0.0033749
0.00351512
0.00368316
0.0038585
0.0042296
0.00383188
0.00289262
0.00299535
0.00308944
0.00319508
0.00330702
0.0034291
0.00355298
0.00367401
0.00380152
0.00391024
0.00413685
0.0040092
0.00368376
0.00349637
0.00331537
0.00315485
0.00302417
0.00292153
0.00284649
0.00280035
0.00278449
0.00279573
0.00284972
0.00295435
0.00359384
0.00341147
0.00323916
0.00308468
0.00295364
0.00284629
0.00276446
0.00270788
0.00267672
0.00266946
0.00271087
0.0028189
0.00352986
0.00335744
0.00319121
0.00303499
0.00289283
0.00276566
0.00265465
0.0025548
0.0024578
0.00236791
0.00230872
0.0023258
0.00347601
0.00331789
0.00315782
0.00299668
0.00283586
0.00267791
0.00251871
0.00235142
0.00215747
0.00193161
0.00167368
0.00146244
0.00308249
0.00327667
0.00340276
0.00350905
0.0036168
0.00372161
0.0038141
0.00389259
0.00395687
0.00400039
0.00402131
0.00388656
0.00299079
0.00336286
0.00353009
0.00363914
0.00374222
0.00383335
0.00390784
0.00395964
0.00398424
0.00398443
0.00394303
0.00378477
0.00250534
0.00325185
0.00352371
0.00365409
0.00376063
0.0038445
0.00391014
0.00394283
0.00394758
0.00393172
0.00386336
0.00370607
0.0015032
0.00289906
0.00340002
0.00359095
0.00370738
0.00379028
0.00385245
0.00387579
0.00387437
0.00385256
0.00378004
0.00363555
0.00368384
0.00349659
0.00331567
0.00315515
0.00302446
0.0029218
0.00284675
0.00280061
0.00278474
0.00279597
0.00284995
0.00295456
0.00359403
0.00341175
0.00323948
0.00308499
0.00295393
0.00284657
0.00276472
0.00270813
0.00267695
0.00266966
0.00271106
0.00281909
0.00353011
0.00335775
0.00319154
0.00303531
0.00289313
0.00276593
0.00265489
0.00255503
0.00245799
0.00236807
0.00230887
0.00232595
0.00347628
0.00331821
0.00315816
0.002997
0.00283616
0.00267819
0.00251896
0.00235163
0.00215765
0.00193176
0.00167379
0.00146252
0.00308269
0.00327691
0.00340301
0.00350931
0.00361708
0.00372188
0.00381438
0.00389286
0.00395714
0.00400065
0.00402155
0.00388678
0.00299097
0.0033631
0.00353036
0.00363943
0.00374252
0.00383365
0.00390813
0.00395991
0.0039845
0.00398468
0.00394326
0.00378497
0.00250547
0.00325208
0.003524
0.0036544
0.00376095
0.00384481
0.00391043
0.0039431
0.00394784
0.00393196
0.00386359
0.00370626
0.00150326
0.00289925
0.0034003
0.00359127
0.00370771
0.0037906
0.00385275
0.00387607
0.00387463
0.0038528
0.00378026
0.00363574
0.00368403
0.00349675
0.0033158
0.00315526
0.00302455
0.00292188
0.00284682
0.00280067
0.00278479
0.00279606
0.00285006
0.00295474
0.00359421
0.00341189
0.0032396
0.00308508
0.002954
0.00284663
0.00276477
0.00270817
0.002677
0.00266978
0.00271118
0.0028193
0.00353028
0.00335789
0.00319165
0.00303539
0.00289319
0.00276598
0.00265494
0.00255506
0.00245805
0.00236819
0.00230894
0.00232608
0.00347644
0.00331834
0.00315826
0.00299708
0.00283621
0.00267822
0.00251898
0.00235166
0.00215768
0.00193182
0.00167385
0.00146257
0.00308299
0.00327725
0.00340344
0.00350982
0.00361761
0.00372245
0.00381495
0.00389345
0.00395774
0.00400125
0.00402212
0.00388727
0.00299131
0.00336354
0.00353092
0.00364004
0.00374315
0.00383429
0.00390876
0.00396053
0.00398511
0.00398526
0.00394379
0.00378543
0.00250578
0.00325255
0.00352462
0.00365508
0.00376164
0.0038455
0.00391109
0.00394374
0.00394846
0.00393254
0.00386409
0.0037067
0.00150343
0.00289971
0.00340095
0.00359199
0.00370844
0.00379132
0.00385343
0.00387672
0.00387526
0.00385338
0.00378075
0.00363617
0.00368445
0.0034971
0.0033161
0.00315552
0.00302479
0.0029221
0.00284703
0.00280084
0.00278493
0.00279612
0.00285009
0.00295469
0.0035946
0.00341222
0.00323989
0.00308534
0.00295424
0.00284683
0.00276494
0.00270831
0.0026771
0.00266979
0.00271115
0.00281914
0.00353065
0.0033582
0.00319193
0.00303565
0.00289341
0.00276616
0.00265507
0.00255519
0.00245814
0.00236828
0.00230897
0.00232597
0.00347681
0.00331864
0.00315852
0.00299731
0.00283641
0.0026784
0.00251914
0.00235176
0.00215776
0.00193186
0.00167382
0.00146251
0.00308279
0.00327702
0.00340311
0.00350942
0.00361719
0.00372201
0.00381451
0.003893
0.00395729
0.00400082
0.00402173
0.00388697
0.00299104
0.00336315
0.00353042
0.0036395
0.0037426
0.00383375
0.00390824
0.00396004
0.00398465
0.00398483
0.00394344
0.00378515
0.00250551
0.00325209
0.00352402
0.00365443
0.003761
0.00384488
0.00391052
0.00394322
0.00394797
0.00393211
0.00386377
0.00370642
0.00150329
0.00289925
0.00340029
0.00359127
0.00370772
0.00379064
0.00385282
0.00387617
0.00387474
0.00385293
0.00378042
0.00363589
0.00342158
0.00328146
0.00312949
0.00296327
0.00278331
0.00259459
0.00238632
0.0021475
0.00185576
0.00147418
0.000905576
0.000280258
0.00335758
0.00323786
0.0030977
0.00293009
0.00273866
0.00252681
0.00228125
0.00199231
0.00164476
0.00121548
0.000619846
0.000145448
0.00327669
0.00317855
0.00305485
0.002892
0.00269896
0.00247608
0.00221093
0.00189837
0.00153653
0.0011384
0.000629469
0.000126474
0.00317494
0.00309744
0.00299373
0.00284225
0.00265678
0.00243511
0.00216762
0.00185515
0.00150999
0.00116777
0.000727857
0.00012907
0.00304915
0.00299051
0.00290711
0.00277264
0.00260186
0.00239123
0.00213421
0.00183646
0.00151641
0.00119103
0.000782647
0.000133594
0.00289264
0.00285155
0.00278659
0.00267312
0.00252195
0.00232877
0.0020893
0.00181049
0.00150712
0.00117369
0.000783358
0.000136965
0.00269428
0.00266938
0.00262132
0.00253003
0.00240171
0.00222928
0.00201012
0.00174907
0.00145444
0.00111399
0.000740995
0.000137733
0.00243447
0.0024247
0.00239223
0.00232241
0.00221874
0.00206928
0.00187229
0.00162826
0.00134201
0.00101117
0.000657304
0.000135873
0.00208077
0.00208409
0.00206666
0.0020167
0.00193535
0.00181331
0.00164705
0.00142265
0.00115269
0.000851413
0.000534572
0.000130371
0.00158056
0.00159285
0.00158844
0.00155647
0.00149591
0.0014079
0.00128851
0.00109915
0.000870885
0.000626079
0.000371153
0.000120072
0.000866078
0.000878362
0.000881806
0.000866969
0.000835516
0.000787888
0.000727689
0.000622908
0.00047192
0.000327335
0.000173753
0.000103105
9.3845e-05
9.62905e-05
9.83139e-05
9.91153e-05
9.85683e-05
9.65935e-05
9.31424e-05
8.78207e-05
7.98178e-05
6.81923e-05
5.29996e-05
3.28957e-05
0.000377995
0.00239235
0.00319885
0.00347166
0.00360263
0.00369008
0.00375326
0.00377591
0.0037727
0.00375128
0.00368655
0.00356235
0.00033329
0.00213526
0.00298546
0.00331313
0.00345917
0.00355404
0.00362274
0.00365012
0.00365088
0.0036312
0.00357738
0.00347736
0.000309779
0.00192749
0.00276596
0.00312298
0.00328544
0.00338909
0.00346494
0.00350081
0.00351106
0.00349629
0.0034523
0.00337281
0.000291366
0.00173615
0.00253965
0.00290983
0.00308666
0.00319884
0.00328144
0.00332768
0.00334855
0.00334307
0.00331045
0.00324982
0.000274758
0.00154885
0.00230509
0.00267777
0.00286493
0.00298384
0.00307183
0.00312868
0.00315939
0.0031656
0.00314736
0.00310469
0.000258352
0.00135619
0.00205876
0.00242712
0.00261915
0.00274165
0.00283336
0.00289887
0.00293953
0.00295775
0.00295445
0.00293049
0.00024197
0.00114151
0.00179561
0.00215519
0.00234453
0.0024658
0.00255875
0.00263061
0.00268055
0.00271022
0.00272089
0.00271422
0.000225645
0.000908267
0.00151043
0.00185672
0.00203128
0.00214416
0.00223444
0.00230954
0.00236697
0.0024065
0.00242918
0.00243751
0.000208027
0.00068181
0.00120436
0.00151925
0.00166191
0.00175663
0.00183815
0.00191171
0.00197283
0.00201891
0.00205017
0.00206992
0.000187422
0.000477388
0.000875143
0.00111082
0.00119681
0.00126117
0.00132645
0.00139324
0.00145457
0.00150392
0.00153717
0.00156189
0.000163051
0.000292015
0.000493242
0.000585706
0.000613124
0.000643781
0.000681489
0.000725866
0.000771079
0.000809304
0.000832316
0.000850542
4.28131e-05
4.7152e-05
5.68078e-05
6.45472e-05
6.95312e-05
7.31813e-05
7.63355e-05
7.95544e-05
8.28917e-05
8.59593e-05
8.87324e-05
9.13217e-05
0.00342189
0.00328179
0.00312983
0.00296359
0.00278361
0.00259487
0.00238657
0.00214772
0.00185593
0.00147431
0.000905639
0.000280271
0.00335793
0.00323818
0.00309804
0.00293042
0.00273896
0.00252709
0.0022815
0.00199253
0.00164495
0.00121562
0.000619934
0.000145464
0.00327704
0.00317888
0.00305518
0.00289233
0.00269926
0.00247636
0.00221119
0.0018986
0.00153673
0.00113857
0.000629584
0.000126492
0.00317531
0.00309777
0.00299405
0.00284257
0.00265707
0.00243539
0.00216788
0.00185538
0.0015102
0.00116795
0.000727986
0.000129088
0.00304954
0.00299085
0.00290743
0.00277296
0.00260216
0.0023915
0.00213447
0.0018367
0.00151662
0.00119121
0.000782787
0.000133613
0.00289303
0.00285188
0.0027869
0.00267342
0.00252224
0.00232905
0.00208955
0.00181073
0.00150733
0.00117387
0.000783496
0.000136984
0.00269466
0.0026697
0.00262162
0.00253032
0.00240199
0.00222954
0.00201036
0.0017493
0.00145464
0.00111417
0.000741131
0.000137751
0.00243481
0.002425
0.00239251
0.00232267
0.00221899
0.00206952
0.00187251
0.00162847
0.0013422
0.00101133
0.000657424
0.000135891
0.00208105
0.00208434
0.00206689
0.00201692
0.00193557
0.00181352
0.00164725
0.00142284
0.00115286
0.000851549
0.000534669
0.000130387
0.00158075
0.00159303
0.0015886
0.00155663
0.00149607
0.00140805
0.00128865
0.00109929
0.000871011
0.000626179
0.000371221
0.000120087
0.000866189
0.000878452
0.000881886
0.000867048
0.000835596
0.000787969
0.000727767
0.00062299
0.000471994
0.000327389
0.000173787
0.000103118
9.38529e-05
9.6299e-05
9.83217e-05
9.91228e-05
9.85758e-05
9.66012e-05
9.31501e-05
8.78282e-05
7.98254e-05
6.8199e-05
5.30053e-05
3.28993e-05
0.000378006
0.00239251
0.00319914
0.00347199
0.00360298
0.00369042
0.00375358
0.0037762
0.00377296
0.00375152
0.00368676
0.00356254
0.000333299
0.0021354
0.00298574
0.00331347
0.00345953
0.00355438
0.00362306
0.00365042
0.00365114
0.00363144
0.0035776
0.00347755
0.000309787
0.00192764
0.00276623
0.00312333
0.0032858
0.00338944
0.00346527
0.0035011
0.00351133
0.00349653
0.00345251
0.003373
0.000291374
0.0017363
0.00253993
0.00291017
0.00308702
0.00319919
0.00328176
0.00332798
0.00334882
0.00334331
0.00331066
0.00325
0.000274766
0.00154899
0.00230535
0.0026781
0.00286528
0.00298418
0.00307216
0.00312897
0.00315965
0.00316583
0.00314757
0.00310488
0.00025836
0.00135633
0.00205902
0.00242743
0.00261948
0.00274197
0.00283367
0.00289915
0.00293978
0.00295798
0.00295466
0.00293068
0.000241978
0.00114165
0.00179585
0.00215548
0.00234484
0.00246609
0.00255903
0.00263087
0.00268079
0.00271043
0.00272108
0.00271439
0.000225653
0.000908395
0.00151065
0.00185697
0.00203154
0.00214441
0.00223468
0.00230976
0.00236718
0.00240669
0.00242935
0.00243766
0.000208034
0.00068192
0.00120455
0.00151946
0.00166211
0.00175682
0.00183834
0.00191189
0.001973
0.00201907
0.00205031
0.00207006
0.000187429
0.000477473
0.000875299
0.00111096
0.00119694
0.00126129
0.00132657
0.00139336
0.00145469
0.00150403
0.00153727
0.00156198
0.000163056
0.000292059
0.000493329
0.000585771
0.000613181
0.000643834
0.00068154
0.00072592
0.000771135
0.00080936
0.000832371
0.000850596
4.28141e-05
4.71543e-05
5.68132e-05
6.45534e-05
6.95371e-05
7.31866e-05
7.63402e-05
7.9559e-05
8.28962e-05
8.59636e-05
8.87369e-05
9.13263e-05
0.00342205
0.00328192
0.00312994
0.00296367
0.00278366
0.00259489
0.00238657
0.00214771
0.00185593
0.00147433
0.000905661
0.000280291
0.00335808
0.00323832
0.00309815
0.0029305
0.00273901
0.00252711
0.00228149
0.0019925
0.00164492
0.00121559
0.000619913
0.000145466
0.0032772
0.00317901
0.0030553
0.00289242
0.00269932
0.00247639
0.00221118
0.00189857
0.00153669
0.00113851
0.00062954
0.000126489
0.00317547
0.00309791
0.00299418
0.00284268
0.00265715
0.00243543
0.00216789
0.00185536
0.00151015
0.0011679
0.000727946
0.000129085
0.0030497
0.00299099
0.00290756
0.00277308
0.00260225
0.00239156
0.00213449
0.00183669
0.0015166
0.00119118
0.000782753
0.00013361
0.00289319
0.00285202
0.00278704
0.00267355
0.00252234
0.00232912
0.00208959
0.00181074
0.00150732
0.00117385
0.000783468
0.000136982
0.00269481
0.00266984
0.00262176
0.00253045
0.0024021
0.00222963
0.00201042
0.00174933
0.00145465
0.00111415
0.000741107
0.000137749
0.00243495
0.00242513
0.00239264
0.00232279
0.0022191
0.00206961
0.00187258
0.00162851
0.00134222
0.00101133
0.000657406
0.000135889
0.00208117
0.00208445
0.00206701
0.00201703
0.00193567
0.0018136
0.00164731
0.00142288
0.00115288
0.00085155
0.000534652
0.000130386
0.00158084
0.00159311
0.00158869
0.00155672
0.00149615
0.00140812
0.00128871
0.00109933
0.00087103
0.000626182
0.000371214
0.000120085