/*--------------------------------*- C++ -*----------------------------------*\
| =========                 |                                                 |
| \\      /  F ield         | OpenFOAM: The Open Source CFD Toolbox           |
|  \\    /   O peration     | Version:  v1912                                 |
|   \\  /    A nd           | Website:  www.openfoam.com                      |
|    \\/     M anipulation  |                                                 |
\*---------------------------------------------------------------------------*/
FoamFile
{
    version     2.0;
    format      ascii;
    class       volScalarField;
    location    "450";
    object      p;
}
// * * * * * * * * * * * * * * * * * * * * * * * * * * * * * * * * * * * * * //

dimensions      [0 2 -2 0 0 0 0];


internalField   nonuniform List<scalar> 
3072
(
0.000111318
-0.111288
-0.213706
-0.283328
-0.318708
-0.304028
-0.265048
-0.202261
-0.0829882
0.106972
0.0558781
-0.183597
0.671448
0.480658
0.35237
0.280777
0.272695
0.359233
0.595813
0.815954
1.36519
2.02922
2.32253
2.49285
1.36516
1.07947
0.949837
0.934504
1.03905
1.28035
1.72597
2.16368
2.56141
2.92961
3.15964
3.34095
2.25717
1.9849
1.91719
2.00457
2.28673
2.71794
3.18273
3.6045
3.97162
4.27694
4.50165
4.68236
3.26672
3.1029
3.13261
3.34488
3.72743
4.17749
4.60883
4.98602
5.31274
5.57226
5.76727
5.91763
4.33372
4.28509
4.42291
4.73013
5.1454
5.57104
5.95464
6.28002
6.54769
6.7591
6.92081
7.04438
5.39791
5.47988
5.70999
6.07467
6.48939
6.87992
7.21265
7.48386
7.69982
7.86746
7.99482
8.0908
6.45616
6.69042
6.98592
7.37449
7.76508
8.10641
8.38337
8.60042
8.76697
8.89235
8.98569
9.05476
7.52192
7.92899
8.26253
8.64313
8.98616
9.26464
9.47785
9.63613
9.75144
9.83443
9.89438
9.93775
8.62385
9.16491
9.52064
9.87185
10.1519
10.3527
10.4919
10.5859
10.6481
10.6892
10.7176
10.7377
9.77082
10.4701
10.7838
11.0253
11.2141
11.3247
11.3859
11.4175
11.4319
11.4379
11.4422
11.4456
10.7925
11.7911
11.9745
12.025
12.092
12.1119
12.1064
12.091
12.0741
12.0612
12.0558
12.0541
-0.400158
-0.535164
-0.499838
-0.332699
-0.027172
0.37637
0.866954
1.37259
1.82933
2.17665
2.32763
2.19978
2.58022
2.64929
2.68801
2.74208
2.81549
2.92255
3.03796
3.15653
3.25148
3.39801
3.3509
2.69308
3.45918
3.54511
3.62
3.70511
3.79811
3.88731
3.96665
4.00842
3.98151
3.95652
3.81298
2.85288
4.81566
4.91723
4.99525
5.05484
5.09271
5.10677
5.09193
5.01572
4.85686
4.66196
4.38797
3.15563
6.02674
6.10458
6.15696
6.18743
6.19472
6.17441
6.11554
6.00379
5.80936
5.53025
5.19843
3.76406
7.13456
7.19766
7.23737
7.25549
7.25093
7.21983
7.15196
7.03432
6.84273
6.55336
6.20672
4.77951
8.16049
8.20854
8.23799
8.25038
8.24538
8.22048
8.16946
8.08157
7.9379
7.7134
7.43673
6.15233
9.10472
9.13939
9.16185
9.17407
9.17695
9.17009
9.15087
9.11408
9.05175
8.94455
8.82729
7.87796
9.9693
9.99186
10.0088
10.0228
10.037
10.0532
10.0727
10.0975
10.1345
10.1837
10.3118
9.88786
10.7532
10.7652
10.7772
10.7924
10.8166
10.8551
10.9121
10.997
11.1304
11.3424
11.8234
12.1167
11.4507
11.4554
11.4641
11.4796
11.509
11.5626
11.6472
11.7785
11.9833
12.3295
13.2046
14.3762
12.0583
12.0605
12.0685
12.0838
12.1132
12.1695
12.2627
12.4123
12.6368
13.0262
14.0025
15.867
0.000172121
-0.111187
-0.213578
-0.283182
-0.318567
-0.303892
-0.264894
-0.20217
-0.0829718
0.107117
0.0562293
-0.183189
0.67153
0.480765
0.352451
0.280842
0.272745
0.359189
0.595699
0.815911
1.3647
2.029
2.32264
2.49295
1.36515
1.07943
0.949733
0.934337
1.0388
1.27999
1.72553
2.1634
2.56113
2.92947
3.15958
3.34091
2.25706
1.98467
1.91684
2.00412
2.28615
2.71738
3.18228
3.60418
3.97138
4.27681
4.50157
4.68231
3.26655
3.10259
3.13215
3.34429
3.72683
4.17701
4.60848
4.98577
5.31257
5.57217
5.76722
5.91761
4.33359
4.2848
4.42249
4.72964
5.14495
5.57072
5.95442
6.27989
6.5476
6.75907
6.92079
7.04438
5.39783
5.47965
5.70966
6.07433
6.48911
6.87974
7.21254
7.48381
7.6998
7.86746
7.99483
8.09081
6.45614
6.69025
6.98571
7.37427
7.76493
8.10633
8.38333
8.60043
8.76699
8.89238
8.98573
9.05479
7.52192
7.92888
8.26239
8.643
8.98609
9.26461
9.47786
9.63616
9.75148
9.83447
9.89442
9.93779
8.62384
9.16483
9.52055
9.87178
10.1519
10.3527
10.4919
10.5859
10.6481
10.6892
10.7176
10.7377
9.7708
10.47
10.7837
11.0252
11.2141
11.3247
11.3859
11.4176
11.4319
11.438
11.4423
11.4456
10.7925
11.791
11.9744
12.025
12.092
12.112
12.1064
12.091
12.0741
12.0612
12.0558
12.0542
-0.399794
-0.534953
-0.499707
-0.332659
-0.0271601
0.376355
0.866959
1.37261
1.8294
2.17677
2.3278
2.19991
2.5803
2.64939
2.68809
2.74214
2.81553
2.92259
3.038
3.15659
3.25156
3.39814
3.35103
2.69316
3.4592
3.54514
3.62003
3.70513
3.79812
3.88733
3.96667
4.00845
3.98155
3.95658
3.81304
2.85288
4.81565
4.91723
4.99526
5.05485
5.09272
5.10678
5.09195
5.01573
4.85688
4.66198
4.38798
3.15557
6.02674
6.10459
6.15698
6.18744
6.19473
6.17441
6.11555
6.00379
5.80936
5.53024
5.19842
3.76397
7.13457
7.19767
7.23738
7.2555
7.25093
7.21983
7.15196
7.03432
6.84273
6.55335
6.20669
4.77942
8.16051
8.20856
8.238
8.25039
8.24538
8.22049
8.16946
8.08157
7.93789
7.71339
7.43671
6.15226
9.10475
9.13942
9.16187
9.17409
9.17696
9.1701
9.15087
9.11408
9.05175
8.94455
8.82729
7.87793
9.96933
9.99189
10.0088
10.0228
10.037
10.0532
10.0727
10.0976
10.1346
10.1838
10.3118
9.8879
10.7533
10.7653
10.7772
10.7924
10.8166
10.8552
10.9121
10.9971
11.1304
11.3425
11.8235
12.1169
11.4507
11.4554
11.4641
11.4796
11.509
11.5626
11.6472
11.7785
11.9833
12.3295
13.2048
14.3764
12.0583
12.0605
12.0685
12.0838
12.1132
12.1696
12.2627
12.4123
12.6369
13.0263
14.0027
15.8673
0.000253259
-0.111068
-0.213401
-0.282978
-0.318341
-0.303644
-0.264672
-0.201849
-0.0825552
0.107353
0.056182
-0.18332
0.671683
0.481005
0.352771
0.281227
0.273151
0.359694
0.596288
0.816404
1.36574
2.02965
2.32283
2.49314
1.36536
1.0798
0.950222
0.934934
1.03951
1.28084
1.72645
2.16411
2.56183
2.92999
3.15998
3.34128
2.25729
1.98514
1.9175
2.00493
2.28714
2.71837
3.18313
3.60487
3.97197
4.27725
4.50194
4.68264
3.26679
3.10306
3.13284
3.34519
3.72777
4.17784
4.60915
4.98632
5.31302
5.57252
5.76752
5.91788
4.33377
4.2852
4.42309
4.73037
5.14565
5.57128
5.95488
6.28024
6.54791
6.75932
6.92103
7.04459
5.39793
5.47997
5.71013
6.07485
6.48957
6.8801
7.21282
7.48403
7.69999
7.86764
7.995
8.09098
6.45616
6.69049
6.98603
7.37461
7.76521
8.10654
8.3835
8.60056
8.76711
8.8925
8.98585
9.05492
7.52192
7.92904
8.26261
8.64322
8.98626
9.26473
9.47795
9.63624
9.75156
9.83456
9.89451
9.93789
8.62384
9.16495
9.5207
9.87192
10.152
10.3528
10.492
10.586
10.6482
10.6893
10.7177
10.7378
9.7708
10.4701
10.7838
11.0253
11.2142
11.3248
11.3859
11.4176
11.4319
11.438
11.4423
11.4457
10.7925
11.7911
11.9745
12.025
12.092
12.112
12.1064
12.091
12.0741
12.0612
12.0558
12.0542
-0.399887
-0.53487
-0.499543
-0.332394
-0.0268732
0.376672
0.867244
1.37288
1.82961
2.17694
2.32792
2.20006
2.5805
2.64957
2.68829
2.74237
2.81577
2.92284
3.03824
3.15681
3.25175
3.39829
3.35116
2.69333
3.45948
3.5454
3.62028
3.70539
3.79838
3.88758
3.96691
4.00868
3.98177
3.95678
3.81322
2.85311
4.81593
4.9175
4.99551
5.05509
5.09297
5.10703
5.09219
5.01597
4.85712
4.66222
4.38821
3.15587
6.02697
6.10482
6.1572
6.18767
6.19495
6.17465
6.11578
6.00404
5.80961
5.53051
5.19868
3.76431
7.13477
7.19787
7.23758
7.2557
7.25114
7.22005
7.15218
7.03455
6.84298
6.55362
6.20698
4.77978
8.16068
8.20872
8.23817
8.25057
8.24557
8.22069
8.16967
8.0818
7.93814
7.71366
7.43701
6.15263
9.10488
9.13956
9.16202
9.17424
9.17713
9.17028
9.15106
9.11429
9.05198
8.94481
8.82759
7.8783
9.96945
9.99201
10.0089
10.023
10.0371
10.0534
10.0728
10.0977
10.1348
10.184
10.3121
9.88824
10.7534
10.7654
10.7774
10.7926
10.8167
10.8553
10.9122
10.9972
11.1306
11.3427
11.8237
12.1172
11.4508
11.4555
11.4642
11.4797
11.5091
11.5628
11.6474
11.7786
11.9834
12.3297
13.205
14.3766
12.0584
12.0606
12.0686
12.0839
12.1133
12.1697
12.2628
12.4124
12.637
13.0264
14.0028
15.8674
0.000137089
-0.111223
-0.213612
-0.283217
-0.318597
-0.303918
-0.264932
-0.202169
-0.0829211
0.107113
0.0560846
-0.183413
0.671502
0.480743
0.35244
0.280845
0.272761
0.359257
0.5958
0.815989
1.36506
2.02921
2.32265
2.49296
1.36514
1.07945
0.949775
0.934414
1.03893
1.28019
1.72578
2.16358
2.56132
2.9296
3.15966
3.34098
2.25707
1.98473
1.91695
2.00429
2.28639
2.71764
3.18252
3.60437
3.97155
4.27692
4.50166
4.68239
3.26657
3.10266
3.13228
3.34449
3.72707
4.17723
4.60868
4.98593
5.3127
5.57227
5.7673
5.91768
4.3336
4.28486
4.42261
4.72981
5.14514
5.57089
5.95457
6.28001
6.5477
6.75915
6.92086
7.04444
5.39782
5.4797
5.70976
6.07446
6.48925
6.87987
7.21265
7.4839
7.69988
7.86753
7.9949
8.09087
6.45611
6.69028
6.98578
7.37437
7.76504
8.10643
8.38342
8.6005
8.76705
8.89244
8.98578
9.05484
7.52189
7.9289
8.26244
8.64308
8.98617
9.26469
9.47793
9.63622
9.75154
9.83452
9.89447
9.93783
8.62382
9.16485
9.5206
9.87184
10.152
10.3528
10.492
10.586
10.6482
10.6893
10.7177
10.7378
9.77077
10.4701
10.7838
11.0253
11.2142
11.3248
11.3859
11.4176
11.4319
11.438
11.4423
11.4456
10.7925
11.791
11.9745
12.025
12.0921
12.112
12.1065
12.091
12.0741
12.0612
12.0558
12.0542
-0.400022
-0.535119
-0.499833
-0.33273
-0.0271979
0.376359
0.866983
1.37266
1.82946
2.17685
2.32789
2.2
2.58031
2.64938
2.68809
2.74215
2.81556
2.92263
3.03806
3.15665
3.25163
3.39823
3.3511
2.69323
3.45923
3.54516
3.62005
3.70516
3.79816
3.88738
3.96672
4.00851
3.98161
3.95664
3.81309
2.85293
4.8157
4.91728
4.9953
5.05489
5.09277
5.10683
5.092
5.01579
4.85694
4.66204
4.38803
3.15563
6.02679
6.10464
6.15702
6.18749
6.19477
6.17446
6.1156
6.00385
5.80942
5.5303
5.19848
3.76404
7.13462
7.19772
7.23743
7.25555
7.25098
7.21988
7.15201
7.03438
6.84279
6.55342
6.20676
4.77951
8.16056
8.2086
8.23804
8.25044
8.24543
8.22054
8.16951
8.08163
7.93796
7.71347
7.4368
6.15237
9.10479
9.13946
9.1619
9.17412
9.177
9.17014
9.15092
9.11413
9.05181
8.94463
8.82739
7.87807
9.96937
9.99192
10.0088
10.0229
10.037
10.0533
10.0727
10.0976
10.1346
10.1838
10.3119
9.88806
10.7533
10.7653
10.7773
10.7924
10.8166
10.8552
10.9121
10.9971
11.1305
11.3426
11.8236
12.117
11.4508
11.4554
11.4642
11.4796
11.509
11.5626
11.6473
11.7785
11.9833
12.3296
13.2048
14.3765
12.0583
12.0605
12.0685
12.0838
12.1132
12.1696
12.2627
12.4123
12.6369
13.0263
14.0027
15.8673
12.8427
12.994
12.8789
12.7618
12.7088
12.6641
12.621
12.5843
12.5604
12.5499
12.5537
12.5623
13.227
13.0842
13.0699
13.0209
12.9906
12.958
12.9254
12.9027
12.8987
12.9132
12.9459
12.981
13.4002
13.3016
13.2634
13.2023
13.1568
13.1209
13.0987
13.0988
13.1272
13.1819
13.2599
13.3374
13.5325
13.4451
13.3715
13.2909
13.225
13.1804
13.167
13.1953
13.2709
13.3905
13.5445
13.7022
12.5781
12.5835
12.5941
12.6083
12.6326
12.6798
12.7615
12.8975
13.0814
13.3518
13.672
14.6107
13.022
13.0341
13.0498
13.0598
13.072
13.0989
13.1535
13.2562
13.3876
13.5791
13.6549
13.9459
13.4141
13.429
13.4506
13.4493
13.4406
13.4361
13.4481
13.499
13.5669
13.6959
13.7009
13.7892
13.829
13.8264
13.8488
13.8228
13.7772
13.7207
13.665
13.6344
13.6173
13.6728
13.6489
13.7138
12.8427
12.9939
12.8788
12.7618
12.7088
12.6641
12.621
12.5844
12.5604
12.5499
12.5537
12.5623
13.227
13.0842
13.0699
13.021
12.9906
12.958
12.9254
12.9027
12.8987
12.9133
12.946
12.9811
13.4002
13.3016
13.2634
13.2023
13.1568
13.1209
13.0988
13.0988
13.1272
13.1819
13.2599
13.3375
13.5325
13.4452
13.3715
13.291
13.225
13.1804
13.167
13.1953
13.2709
13.3905
13.5446
13.7022
12.5781
12.5835
12.5941
12.6083
12.6326
12.6798
12.7615
12.8975
13.0814
13.3519
13.6721
14.6108
13.022
13.0341
13.0499
13.0598
13.072
13.099
13.1535
13.2562
13.3876
13.5792
13.655
13.9459
13.4141
13.429
13.4507
13.4493
13.4406
13.4361
13.4482
13.499
13.5669
13.696
13.7009
13.7892
13.8291
13.8264
13.8488
13.8229
13.7773
13.7208
13.6651
13.6344
13.6173
13.6728
13.6489
13.7138
12.8428
12.994
12.8789
12.7618
12.7088
12.6641
12.621
12.5844
12.5604
12.5499
12.5538
12.5624
13.227
13.0842
13.0699
13.021
12.9906
12.958
12.9254
12.9027
12.8987
12.9133
12.946
12.9811
13.4002
13.3016
13.2633
13.2023
13.1568
13.1209
13.0987
13.0988
13.1272
13.1819
13.2599
13.3375
13.5325
13.4451
13.3715
13.2909
13.225
13.1803
13.1669
13.1952
13.2708
13.3905
13.5445
13.7022
12.5781
12.5836
12.5942
12.6084
12.6327
12.6799
12.7616
12.8976
13.0815
13.3519
13.6721
14.6109
13.022
13.0341
13.0499
13.0599
13.0721
13.099
13.1536
13.2563
13.3877
13.5792
13.655
13.946
13.4142
13.429
13.4507
13.4494
13.4407
13.4362
13.4483
13.4991
13.567
13.696
13.7009
13.7893
13.8291
13.8265
13.8489
13.8229
13.7773
13.7208
13.6651
13.6345
13.6174
13.673
13.649
13.7139
12.8428
12.994
12.8789
12.7618
12.7088
12.6642
12.6211
12.5844
12.5605
12.55
12.5538
12.5624
13.2271
13.0843
13.0701
13.0211
12.9907
12.9582
12.9255
12.9028
12.8988
12.9133
12.946
12.9811
13.4003
13.3017
13.2635
13.2024
13.157
13.1211
13.0989
13.099
13.1273
13.182
13.26
13.3375
13.5326
13.4453
13.3717
13.2911
13.2252
13.1806
13.1672
13.1955
13.2711
13.3907
13.5447
13.7023
12.5781
12.5835
12.5941
12.6083
12.6326
12.6798
12.7615
12.8975
13.0814
13.3519
13.6721
14.6109
13.022
13.0341
13.0498
13.0598
13.072
13.0989
13.1534
13.2562
13.3876
13.5792
13.6549
13.9459
13.4141
13.429
13.4506
13.4493
13.4406
13.4361
13.4481
13.499
13.5668
13.6959
13.7008
13.7892
13.829
13.8264
13.8488
13.8228
13.7772
13.7207
13.665
13.6343
13.6172
13.6728
13.6489
13.7138
13.653
13.5861
13.5088
13.4297
13.3592
13.3073
13.2856
13.3051
13.3716
13.484
13.6325
13.8023
13.7693
13.7101
13.6437
13.5777
13.5167
13.4675
13.4392
13.4405
13.4774
13.5501
13.6532
13.7795
13.859
13.8048
13.7453
13.6858
13.6279
13.5766
13.5396
13.5258
13.543
13.5941
13.6784
13.7907
13.926
13.8748
13.8186
13.7606
13.7006
13.6429
13.5948
13.5662
13.5686
13.6099
13.6912
13.7533
13.9962
14.0137
14.0492
14.0266
13.9835
13.922
13.8537
13.7945
13.7431
13.7411
13.6956
13.7277
14.017
14.0298
14.0781
14.0727
14.0544
14.0212
13.9834
13.9492
13.9156
13.9024
13.8564
13.8426
14.1046
14.0729
14.1231
14.1259
14.1189
14.0994
14.0753
14.0506
14.0226
14.0014
13.9565
13.9254
14.3105
14.1565
14.178
14.1785
14.1742
14.1605
14.1423
14.1208
14.0939
14.0669
14.0224
13.9847
13.6531
13.5862
13.5088
13.4298
13.3593
13.3074
13.2856
13.3051
13.3717
13.484
13.6326
13.8023
13.7693
13.7101
13.6438
13.5777
13.5167
13.4676
13.4392
13.4405
13.4775
13.5502
13.6532
13.7795
13.8591
13.8048
13.7454
13.6859
13.628
13.5767
13.5397
13.5259
13.543
13.5941
13.6784
13.7907
13.926
13.8748
13.8186
13.7607
13.7007
13.643
13.5948
13.5663
13.5687
13.6099
13.6912
13.7533
13.9963
14.0137
14.0493
14.0266
13.9836
13.9221
13.8538
13.7945
13.7431
13.7411
13.6956
13.7277
14.0171
14.0298
14.0781
14.0728
14.0544
14.0213
13.9835
13.9492
13.9156
13.9024
13.8564
13.8426
14.1046
14.073
14.1231
14.1259
14.119
14.0994
14.0753
14.0506
14.0226
14.0014
13.9565
13.9254
14.3105
14.1565
14.178
14.1786
14.1742
14.1605
14.1423
14.1208
14.0939
14.0669
14.0224
13.9847
13.653
13.5861
13.5088
13.4297
13.3592
13.3073
13.2856
13.305
13.3716
13.484
13.6325
13.8023
13.7693
13.7101
13.6437
13.5777
13.5167
13.4675
13.4391
13.4405
13.4774
13.5501
13.6531
13.7795
13.859
13.8048
13.7454
13.6859
13.6279
13.5766
13.5396
13.5258
13.5429
13.5941
13.6784
13.7907
13.926
13.8748
13.8186
13.7607
13.7006
13.6429
13.5948
13.5662
13.5686
13.6099
13.6912
13.7533
13.9963
14.0138
14.0493
14.0267
13.9836
13.9221
13.8538
13.7946
13.7432
13.7412
13.6957
13.7278
14.0171
14.0298
14.0782
14.0728
14.0545
14.0214
13.9835
13.9493
13.9157
13.9025
13.8565
13.8428
14.1047
14.073
14.1232
14.126
14.1191
14.0995
14.0754
14.0507
14.0227
14.0016
13.9566
13.9255
14.3107
14.1566
14.1781
14.1787
14.1744
14.1606
14.1424
14.1209
14.094
14.067
14.0225
13.9848
13.6532
13.5863
13.509
13.4299
13.3595
13.3076
13.2858
13.3053
13.3719
13.4842
13.6327
13.8024
13.7695
13.7103
13.6439
13.5779
13.5169
13.4678
13.4394
13.4407
13.4776
13.5503
13.6533
13.7796
13.8592
13.8049
13.7455
13.686
13.6281
13.5768
13.5398
13.526
13.5431
13.5943
13.6785
13.7908
13.9262
13.8749
13.8188
13.7608
13.7008
13.6431
13.595
13.5664
13.5688
13.6101
13.6913
13.7534
13.9963
14.0137
14.0492
14.0265
13.9835
13.922
13.8537
13.7944
13.743
13.7411
13.6956
13.7277
14.0171
14.0298
14.0781
14.0727
14.0543
14.0212
13.9834
13.9491
13.9155
13.9023
13.8564
13.8426
14.1047
14.0729
14.1231
14.1258
14.1189
14.0993
14.0752
14.0505
14.0225
14.0014
13.9564
13.9254
14.3105
14.1565
14.178
14.1785
14.1742
14.1605
14.1423
14.1207
14.0939
14.0668
14.0224
13.9847
13.9741
13.9236
13.8675
13.8073
13.7417
13.6745
13.6126
13.5668
13.549
13.561
13.6026
13.5014
14.0066
13.9548
13.8963
13.8312
13.7579
13.6797
13.6036
13.541
13.5043
13.4927
13.5318
13.5167
14.0269
13.9726
13.9102
13.839
13.7576
13.6692
13.5813
13.5072
13.4623
13.451
13.4874
13.5085
14.0383
13.981
13.9143
13.8372
13.7487
13.6524
13.5571
13.4785
13.4344
13.4308
13.4689
13.507
14.0437
13.9837
13.9131
13.831
13.7373
13.6362
13.5379
13.4601
13.4208
13.4251
13.4691
13.5164
14.0456
13.9833
13.9098
13.8241
13.7273
13.6241
13.526
13.4521
13.4191
13.4312
13.4832
13.5348
14.046
13.9822
13.9068
13.8191
13.7208
13.6175
13.5215
13.4527
13.426
13.4451
13.5043
13.5583
14.0465
13.9819
13.9059
13.8174
13.7189
13.6166
13.5234
13.4597
13.4382
13.4635
13.5286
13.5834
14.0484
13.984
13.9084
13.8202
13.7226
13.6214
13.5305
13.4708
13.4525
13.4824
13.5513
13.6067
14.0539
13.991
13.917
13.8302
13.7336
13.6331
13.5425
13.4846
13.4656
13.4973
13.5683
13.6255
14.0645
14.0053
13.9345
13.8501
13.7548
13.6537
13.5607
13.5008
13.4763
13.5074
13.5812
13.636
14.0749
14.0198
13.9532
13.8728
13.7804
13.6803
13.5881
13.5164
13.4901
13.5187
13.5893
13.6382
14.6875
14.3308
14.2387
14.2253
14.218
14.2063
14.1908
14.1704
14.1437
14.1132
14.0694
14.0283
14.6625
14.4034
14.2822
14.2597
14.2512
14.24
14.2253
14.2049
14.1778
14.1453
14.102
14.0589
14.5974
14.3972
14.3091
14.2833
14.2753
14.2644
14.2497
14.2285
14.2005
14.1665
14.1235
14.079
14.5308
14.376
14.3246
14.2997
14.2926
14.2821
14.2667
14.2444
14.2151
14.1797
14.1368
14.091
14.4773
14.3596
14.3338
14.3117
14.3052
14.2948
14.2784
14.2548
14.2242
14.1875
14.1443
14.0974
14.4433
14.3513
14.3403
14.3211
14.3148
14.3038
14.2863
14.2614
14.2294
14.1917
14.1481
14.1003
14.4291
14.3526
14.3465
14.3293
14.3224
14.3101
14.2915
14.2652
14.2322
14.1936
14.1499
14.1015
14.43
14.3645
14.3537
14.3371
14.3281
14.3143
14.2945
14.2673
14.2333
14.1944
14.1508
14.1023
14.4408
14.3849
14.3622
14.3441
14.3316
14.3161
14.2956
14.2678
14.2335
14.1947
14.1518
14.1039
14.4561
14.4093
14.3722
14.349
14.3314
14.314
14.2935
14.2663
14.2328
14.1952
14.1539
14.1076
14.475
14.4304
14.3838
14.3513
14.3276
14.3082
14.288
14.2622
14.2308
14.1959
14.1577
14.1147
14.4947
14.4477
14.3926
14.355
14.3267
14.3052
14.2839
14.2584
14.2289
14.1967
14.1612
14.1214
13.9742
13.9236
13.8676
13.8074
13.7418
13.6745
13.6127
13.5668
13.549
13.561
13.6026
13.5014
14.0067
13.9548
13.8964
13.8313
13.7579
13.6798
13.6036
13.541
13.5043
13.4927
13.5318
13.5167
14.027
13.9726
13.9102
13.8391
13.7576
13.6692
13.5813
13.5072
13.4623
13.451
13.4874
13.5085
14.0384
13.9811
13.9144
13.8372
13.7487
13.6524
13.5572
13.4785
13.4343
13.4308
13.4689
13.507
14.0438
13.9837
13.9131
13.831
13.7373
13.6362
13.5379
13.4601
13.4208
13.425
13.4691
13.5164
14.0457
13.9834
13.9098
13.8242
13.7273
13.6241
13.526
13.4521
13.4191
13.4311
13.4832
13.5347
14.046
13.9822
13.9069
13.8191
13.7208
13.6175
13.5215
13.4527
13.426
13.4451
13.5043
13.5583
14.0465
13.982
13.9059
13.8174
13.719
13.6166
13.5234
13.4597
13.4382
13.4635
13.5286
13.5834
14.0485
13.9841
13.9084
13.8203
13.7226
13.6214
13.5305
13.4708
13.4525
13.4824
13.5513
13.6067
14.0539
13.9911
13.9171
13.8302
13.7337
13.6331
13.5425
13.4846
13.4656
13.4973
13.5683
13.6255
14.0645
14.0053
13.9345
13.8501
13.7548
13.6537
13.5607
13.5008
13.4763
13.5074
13.5812
13.636
14.0749
14.0199
13.9533
13.8729
13.7805
13.6803
13.5881
13.5164
13.4901
13.5187
13.5893
13.6383
14.6875
14.3308
14.2387
14.2253
14.218
14.2064
14.1908
14.1704
14.1437
14.1132
14.0694
14.0283
14.6625
14.4034
14.2822
14.2598
14.2512
14.24
14.2253
14.2049
14.1778
14.1453
14.102
14.0589
14.5975
14.3972
14.3092
14.2833
14.2754
14.2645
14.2497
14.2286
14.2005
14.1665
14.1235
14.079
14.5309
14.376
14.3246
14.2997
14.2927
14.2821
14.2667
14.2444
14.2151
14.1797
14.1368
14.091
14.4774
14.3596
14.3339
14.3117
14.3052
14.2948
14.2784
14.2548
14.2242
14.1875
14.1443
14.0974
14.4433
14.3513
14.3404
14.3212
14.3148
14.3038
14.2864
14.2614
14.2294
14.1917
14.1481
14.1004
14.4292
14.3527
14.3466
14.3293
14.3224
14.3101
14.2915
14.2653
14.2322
14.1936
14.1499
14.1015
14.43
14.3645
14.3537
14.3371
14.3281
14.3143
14.2946
14.2673
14.2334
14.1944
14.1508
14.1023
14.4409
14.3849
14.3622
14.3442
14.3317
14.3161
14.2956
14.2678
14.2336
14.1947
14.1518
14.1039
14.4561
14.4093
14.3722
14.349
14.3314
14.314
14.2936
14.2664
14.2328
14.1952
14.1539
14.1076
14.4751
14.4304
14.3838
14.3514
14.3277
14.3083
14.288
14.2622
14.2308
14.196
14.1577
14.1147
14.4947
14.4478
14.3926
14.355
14.3268
14.3052
14.2839
14.2584
14.2289
14.1967
14.1612
14.1214
13.9742
13.9236
13.8675
13.8073
13.7417
13.6745
13.6126
13.5668
13.549
13.561
13.6026
13.5013
14.0067
13.9548
13.8963
13.8312
13.7579
13.6797
13.6036
13.5409
13.5042
13.4927
13.5317
13.5167
14.027
13.9726
13.9102
13.839
13.7576
13.6692
13.5813
13.5071
13.4622
13.4509
13.4874
13.5084
14.0384
13.9811
13.9143
13.8372
13.7487
13.6524
13.5571
13.4784
13.4343
13.4307
13.4688
13.5069
14.0438
13.9837
13.9131
13.831
13.7373
13.6362
13.5379
13.46
13.4207
13.425
13.469
13.5164
14.0457
13.9834
13.9098
13.8241
13.7273
13.6241
13.526
13.4521
13.4191
13.4311
13.4831
13.5347
14.046
13.9822
13.9069
13.8191
13.7208
13.6175
13.5215
13.4527
13.426
13.445
13.5043
13.5583
14.0465
13.982
13.9059
13.8174
13.7189
13.6166
13.5233
13.4596
13.4381
13.4634
13.5286
13.5833
14.0485
13.9841
13.9084
13.8203
13.7226
13.6214
13.5305
13.4708
13.4524
13.4823
13.5513
13.6066
14.0539
13.9911
13.9171
13.8302
13.7337
13.6331
13.5425
13.4845
13.4655
13.4973
13.5683
13.6255
14.0645
14.0053
13.9345
13.8501
13.7548
13.6537
13.5607
13.5007
13.4762
13.5073
13.5812
13.636
14.0749
14.0199
13.9533
13.8728
13.7805
13.6803
13.5881
13.5164
13.49
13.5187
13.5893
13.6382
14.6878
14.331
14.2389
14.2254
14.2182
14.2065
14.1909
14.1705
14.1438
14.1134
14.0695
14.0284
14.6628
14.4036
14.2824
14.2599
14.2513
14.2402
14.2255
14.2051
14.1779
14.1455
14.1021
14.059
14.5978
14.3974
14.3093
14.2834
14.2755
14.2646
14.2499
14.2287
14.2006
14.1666
14.1237
14.0791
14.5311
14.3762
14.3248
14.2999
14.2928
14.2822
14.2669
14.2446
14.2153
14.1799
14.1369
14.0911
14.4776
14.3598
14.334
14.3119
14.3053
14.2949
14.2786
14.255
14.2243
14.1876
14.1444
14.0976
14.4436
14.3515
14.3405
14.3213
14.315
14.304
14.2865
14.2615
14.2295
14.1918
14.1483
14.1005
14.4294
14.3528
14.3467
14.3295
14.3225
14.3103
14.2917
14.2654
14.2323
14.1938
14.15
14.1016
14.4302
14.3647
14.3539
14.3373
14.3283
14.3145
14.2947
14.2674
14.2335
14.1945
14.1509
14.1024
14.4411
14.3851
14.3624
14.3443
14.3318
14.3163
14.2957
14.268
14.2337
14.1949
14.152
14.104
14.4564
14.4096
14.3724
14.3492
14.3316
14.3142
14.2937
14.2665
14.2329
14.1953
14.154
14.1077
14.4753
14.4306
14.384
14.3515
14.3278
14.3084
14.2882
14.2623
14.2309
14.1961
14.1578
14.1148
14.495
14.448
14.3928
14.3552
14.3269
14.3053
14.2841
14.2585
14.2291
14.1968
14.1613
14.1215
13.9743
13.9237
13.8677
13.8075
13.7419
13.6746
13.6128
13.567
13.5491
13.5611
13.6027
13.5015
14.0068
13.9549
13.8965
13.8314
13.7581
13.6799
13.6038
13.5411
13.5044
13.4928
13.5319
13.5168
14.0271
13.9727
13.9103
13.8392
13.7577
13.6693
13.5815
13.5073
13.4624
13.4511
13.4875
13.5086
14.0385
13.9812
13.9145
13.8373
13.7488
13.6526
13.5573
13.4786
13.4345
13.4309
13.469
13.5071
14.0439
13.9838
13.9132
13.8311
13.7374
13.6363
13.538
13.4602
13.4209
13.4252
13.4692
13.5166
14.0458
13.9835
13.9099
13.8242
13.7274
13.6242
13.5261
13.4522
13.4193
13.4313
13.4833
13.5349
14.0461
13.9823
13.907
13.8192
13.7209
13.6176
13.5216
13.4529
13.4261
13.4452
13.5044
13.5585
14.0466
13.982
13.906
13.8175
13.7191
13.6167
13.5235
13.4598
13.4383
13.4636
13.5287
13.5835
14.0486
13.9842
13.9085
13.8204
13.7227
13.6216
13.5306
13.4709
13.4526
13.4825
13.5515
13.6068
14.054
13.9912
13.9172
13.8303
13.7338
13.6332
13.5426
13.4847
13.4657
13.4975
13.5684
13.6256
14.0646
14.0054
13.9346
13.8502
13.7549
13.6538
13.5609
13.5009
13.4764
13.5075
13.5813
13.6361
14.075
14.0199
13.9534
13.8729
13.7806
13.6804
13.5883
13.5166
13.4902
13.5188
13.5894
13.6384
14.6875
14.3308
14.2387
14.2253
14.218
14.2063
14.1907
14.1704
14.1436
14.1132
14.0693
14.0283
14.6625
14.4034
14.2822
14.2597
14.2511
14.24
14.2253
14.2049
14.1778
14.1453
14.102
14.0589
14.5975
14.3972
14.3091
14.2833
14.2753
14.2644
14.2497
14.2285
14.2004
14.1664
14.1235
14.0789
14.5309
14.376
14.3246
14.2997
14.2926
14.282
14.2667
14.2444
14.2151
14.1797
14.1367
14.091
14.4774
14.3596
14.3338
14.3117
14.3052
14.2947
14.2784
14.2548
14.2241
14.1875
14.1443
14.0974
14.4433
14.3513
14.3403
14.3211
14.3148
14.3038
14.2863
14.2613
14.2294
14.1916
14.1481
14.1003
14.4292
14.3526
14.3465
14.3293
14.3223
14.3101
14.2915
14.2652
14.2321
14.1936
14.1499
14.1014
14.43
14.3645
14.3537
14.337
14.3281
14.3143
14.2945
14.2672
14.2333
14.1944
14.1508
14.1022
14.4409
14.3849
14.3622
14.3441
14.3316
14.3161
14.2955
14.2678
14.2335
14.1947
14.1518
14.1038
14.4561
14.4093
14.3722
14.349
14.3314
14.314
14.2935
14.2663
14.2328
14.1951
14.1538
14.1076
14.4751
14.4304
14.3838
14.3513
14.3276
14.3082
14.288
14.2621
14.2308
14.1959
14.1576
14.1146
14.4947
14.4478
14.3926
14.355
14.3267
14.3052
14.2839
14.2583
14.2289
14.1967
14.1611
14.1213
)
;

boundaryField
{
    rotor
    {
        type            zeroGradient;
    }
    stator
    {
        type            zeroGradient;
    }
    front
    {
        type            empty;
    }
    back
    {
        type            empty;
    }
}


// ************************************************************************* //
