/*--------------------------------*- C++ -*----------------------------------*\
| =========                 |                                                 |
| \\      /  F ield         | OpenFOAM: The Open Source CFD Toolbox           |
|  \\    /   O peration     | Version:  v1912                                 |
|   \\  /    A nd           | Website:  www.openfoam.com                      |
|    \\/     M anipulation  |                                                 |
\*---------------------------------------------------------------------------*/
FoamFile
{
    version     2.0;
    format      ascii;
    class       surfaceScalarField;
    location    "450";
    object      phi;
}
// * * * * * * * * * * * * * * * * * * * * * * * * * * * * * * * * * * * * * //

dimensions      [0 3 -1 0 0 0 0];
oriented        oriented;


internalField   nonuniform List<scalar> 
5952
(
5.13988e-06
-5.14696e-06
8.74861e-06
-3.60888e-06
1.14849e-05
-2.73594e-06
1.29906e-05
-1.50535e-06
1.31607e-05
-1.69663e-07
1.15612e-05
1.60075e-06
7.22032e-06
4.34087e-06
9.13313e-07
6.3081e-06
-1.19517e-05
1.28646e-05
-2.64244e-05
1.44727e-05
-3.72357e-05
1.08109e-05
8.43517e-06
-4.56711e-05
1.58494e-06
-6.73182e-06
3.93808e-06
-5.96229e-06
4.16272e-06
-2.96007e-06
2.46107e-06
1.9695e-07
-1.54655e-06
3.83882e-06
-9.23771e-06
9.29253e-06
-2.06839e-05
1.57873e-05
-3.26783e-05
1.83027e-05
-3.84831e-05
1.86694e-05
-4.07413e-05
1.67308e-05
-4.31579e-05
1.32274e-05
1.04435e-05
-4.51663e-05
1.27796e-06
-8.00986e-06
9.90048e-07
-5.67441e-06
-1.2309e-06
-7.38823e-07
-6.33784e-06
5.30437e-06
-1.495e-05
1.24514e-05
-2.43028e-05
1.86456e-05
-2.99696e-05
2.14542e-05
-3.29928e-05
2.1326e-05
-3.41895e-05
1.98661e-05
-3.46395e-05
1.71808e-05
-3.54201e-05
1.40079e-05
1.1105e-05
-3.60818e-05
-1.72066e-06
-6.28923e-06
-4.69184e-06
-2.7031e-06
-9.4038e-06
3.9734e-06
-1.58135e-05
1.17144e-05
-2.18263e-05
1.84644e-05
-2.5446e-05
2.22655e-05
-2.6895e-05
2.29034e-05
-2.72882e-05
2.17193e-05
-2.72226e-05
1.98005e-05
-2.7121e-05
1.70792e-05
-2.71961e-05
1.40829e-05
1.11679e-05
-2.7259e-05
-3.65461e-06
-2.63444e-06
-8.54503e-06
2.18752e-06
-1.35815e-05
9.01021e-06
-1.78953e-05
1.60285e-05
-2.04229e-05
2.09922e-05
-2.10144e-05
2.28572e-05
-2.06352e-05
2.25243e-05
-1.99489e-05
2.1033e-05
-1.90895e-05
1.8941e-05
-1.84095e-05
1.63992e-05
-1.79717e-05
1.3645e-05
1.08618e-05
-1.76657e-05
-4.85187e-06
2.21761e-06
-9.74234e-06
7.07835e-06
-1.35478e-05
1.2816e-05
-1.55806e-05
1.80616e-05
-1.57598e-05
2.11718e-05
-1.4798e-05
2.18956e-05
-1.34218e-05
2.11483e-05
-1.20102e-05
1.96215e-05
-1.07208e-05
1.76517e-05
-9.68729e-06
1.53656e-05
-8.93069e-06
1.28884e-05
1.03183e-05
-8.38725e-06
-5.20325e-06
7.42144e-06
-9.31703e-06
1.11925e-05
-1.15667e-05
1.50661e-05
-1.17148e-05
1.82101e-05
-1.03221e-05
1.97794e-05
-8.29127e-06
1.98651e-05
-6.17134e-06
1.90284e-05
-4.21289e-06
1.76632e-05
-2.52407e-06
1.59629e-05
-1.16145e-06
1.4003e-05
-1.21062e-07
1.1848e-05
9.55157e-06
6.45702e-07
-5.18205e-06
1.26038e-05
-8.20716e-06
1.42178e-05
-8.82732e-06
1.56864e-05
-7.40163e-06
1.67846e-05
-4.82879e-06
1.72067e-05
-1.92103e-06
1.69575e-05
8.81017e-07
1.62265e-05
3.37862e-06
1.51656e-05
5.49546e-06
1.38461e-05
7.21129e-06
1.22872e-05
8.54942e-06
1.05099e-05
8.54268e-06
9.5583e-06
-4.59042e-06
1.71944e-05
-6.36696e-06
1.59944e-05
-5.25885e-06
1.45784e-05
-2.4385e-06
1.39642e-05
1.17135e-06
1.35969e-05
4.87018e-06
1.32587e-05
8.29006e-06
1.28067e-05
1.12765e-05
1.21792e-05
1.37831e-05
1.13394e-05
1.58163e-05
1.02541e-05
1.74189e-05
8.90727e-06
7.31458e-06
1.8647e-05
-4.0429e-06
2.12373e-05
-3.06732e-06
1.50189e-05
5.34724e-07
1.09763e-05
4.8443e-06
9.65465e-06
9.33655e-06
9.10465e-06
1.35733e-05
9.0219e-06
1.73283e-05
9.05173e-06
2.05289e-05
8.97861e-06
2.31797e-05
8.68865e-06
2.53196e-05
8.11414e-06
2.70138e-05
7.2131e-06
6.00199e-06
2.83264e-05
5.69179e-07
2.06682e-05
6.0884e-06
9.49963e-06
1.19608e-05
5.10394e-06
1.72995e-05
4.31586e-06
2.19872e-05
4.41695e-06
2.60097e-05
4.99941e-06
2.94061e-05
5.65538e-06
3.22252e-05
6.15956e-06
3.45254e-05
6.38839e-06
3.63681e-05
6.27149e-06
3.78308e-05
5.75038e-06
4.8574e-06
3.89754e-05
2.04077e-05
2.60404e-07
2.86902e-05
1.21705e-06
3.37488e-05
4.52959e-08
3.76078e-05
4.56907e-07
4.05802e-05
1.44446e-06
4.30143e-05
2.56534e-06
4.50513e-05
3.61837e-06
4.67356e-05
4.47532e-06
4.81003e-05
5.02369e-06
4.91798e-05
5.19206e-06
5.00396e-05
4.89055e-06
5.07243e-05
4.17273e-06
-5.15741e-05
5.90279e-06
-5.55313e-05
3.95707e-06
-5.73544e-05
1.82297e-06
-5.74018e-05
4.73684e-08
-5.56409e-05
-1.76101e-06
-5.21691e-05
-3.4718e-06
-4.67206e-05
-5.44849e-06
-3.93313e-05
-7.38926e-06
-2.98023e-05
-9.52902e-06
-1.83766e-05
-1.14257e-05
-6.99451e-06
-1.1382e-05
-6.99449e-06
-4.6815e-05
7.55135e-06
-4.7643e-05
4.78501e-06
-4.79535e-05
2.13339e-06
-4.75497e-05
-3.56475e-07
-4.6467e-05
-2.8437e-06
-4.44273e-05
-5.51153e-06
-4.14228e-05
-8.45289e-06
-3.70749e-05
-1.17371e-05
-3.12218e-05
-1.53822e-05
-2.35522e-05
-1.90952e-05
-1.31254e-05
-2.18088e-05
-2.01199e-05
-3.6687e-05
8.15646e-06
-3.71606e-05
5.25856e-06
-3.7409e-05
2.38177e-06
-3.72411e-05
-5.24406e-07
-3.65016e-05
-3.58317e-06
-3.51239e-05
-6.88931e-06
-3.30028e-05
-1.0574e-05
-3.00072e-05
-1.47327e-05
-2.60507e-05
-1.93386e-05
-2.06538e-05
-2.44921e-05
-1.28003e-05
-2.96623e-05
-3.29201e-05
-2.73175e-05
8.21488e-06
-2.73133e-05
5.25434e-06
-2.71842e-05
2.25262e-06
-2.68536e-05
-8.54964e-07
-2.62585e-05
-4.17828e-06
-2.53264e-05
-7.82142e-06
-2.39641e-05
-1.19363e-05
-2.20436e-05
-1.66532e-05
-1.93506e-05
-2.20316e-05
-1.53947e-05
-2.8448e-05
-9.41184e-06
-3.56452e-05
-4.23319e-05
-1.74681e-05
8.01723e-06
-1.7327e-05
5.1132e-06
-1.71871e-05
2.11271e-06
-1.69917e-05
-1.05039e-06
-1.66963e-05
-4.4737e-06
-1.62498e-05
-8.2679e-06
-1.55931e-05
-1.2593e-05
-1.46612e-05
-1.7585e-05
-1.32511e-05
-2.34417e-05
-1.11421e-05
-3.0557e-05
-7.44612e-06
-3.93411e-05
-4.97781e-05
-8.02126e-06
7.65122e-06
-7.78906e-06
4.88097e-06
-7.6494e-06
1.97303e-06
-7.5673e-06
-1.1325e-06
-7.51845e-06
-4.52255e-06
-7.48004e-06
-8.3063e-06
-7.44642e-06
-1.26266e-05
-7.37719e-06
-1.76542e-05
-7.1574e-06
-2.36615e-05
-6.60324e-06
-3.11112e-05
-4.88169e-06
-4.10627e-05
-5.46598e-05
1.1789e-06
7.118e-06
1.51521e-06
4.54464e-06
1.68299e-06
1.80524e-06
1.69829e-06
-1.1478e-06
1.5624e-06
-4.38666e-06
1.26354e-06
-8.00742e-06
7.7506e-07
-1.21381e-05
8.11743e-08
-1.69603e-05
-7.92774e-07
-2.27875e-05
-1.72559e-06
-3.01783e-05
-2.25249e-06
-4.05358e-05
-5.69122e-05
1.02839e-05
6.39236e-06
1.076e-05
4.06856e-06
1.10067e-05
1.55853e-06
1.10263e-05
-1.16745e-06
1.08013e-05
-4.16164e-06
1.02904e-05
-7.49653e-06
9.42102e-06
-1.12687e-05
8.10144e-06
-1.56407e-05
6.23874e-06
-2.09248e-05
3.81594e-06
-2.77555e-05
1.21694e-06
-3.79368e-05
-5.56953e-05
1.9557e-05
5.48232e-06
2.01839e-05
3.44172e-06
2.05456e-05
1.19679e-06
2.06358e-05
-1.25766e-06
2.04229e-05
-3.9487e-06
1.98415e-05
-6.91509e-06
1.87695e-05
-1.01967e-05
1.70297e-05
-1.39009e-05
1.43769e-05
-1.8272e-05
1.05556e-05
-2.39342e-05
5.66309e-06
-3.30443e-05
-5.00322e-05
2.93273e-05
4.48135e-06
3.00514e-05
2.71763e-06
3.05189e-05
7.29259e-07
3.0719e-05
-1.45773e-06
3.06089e-05
-3.83861e-06
3.01045e-05
-6.4106e-06
2.90409e-05
-9.13304e-06
2.71629e-05
-1.2023e-05
2.40598e-05
-1.51688e-05
1.92252e-05
-1.90996e-05
1.18455e-05
-2.56647e-05
-3.81867e-05
3.98863e-05
3.57051e-06
4.05877e-05
2.01618e-06
4.11033e-05
2.13682e-07
4.14195e-05
-1.77394e-06
4.14841e-05
-3.90314e-06
4.11991e-05
-6.12557e-06
4.03723e-05
-8.30622e-06
3.8705e-05
-1.03556e-05
3.56485e-05
-1.21122e-05
3.04629e-05
-1.3914e-05
2.06271e-05
-1.58288e-05
-1.75595e-05
5.13404e-05
2.95446e-06
5.18862e-05
1.47039e-06
5.23867e-05
-2.86827e-07
5.28196e-05
-2.20683e-06
5.31178e-05
-4.20126e-06
5.31718e-05
-6.17963e-06
5.2787e-05
-7.92132e-06
5.16923e-05
-9.26088e-06
4.93628e-05
-9.78266e-06
4.48615e-05
-9.41266e-06
3.45447e-05
-5.51194e-06
1.69851e-05
5.14297e-06
-5.14311e-06
8.75161e-06
-3.60867e-06
1.14872e-05
-2.73562e-06
1.2993e-05
-1.50541e-06
1.31632e-05
-1.70221e-07
1.1566e-05
1.59835e-06
7.22715e-06
4.33842e-06
9.22807e-07
6.30536e-06
-1.19386e-05
1.28609e-05
-2.64142e-05
1.44756e-05
-3.72294e-05
1.08149e-05
8.43779e-06
-4.56674e-05
1.58716e-06
-6.73039e-06
3.94114e-06
-5.96283e-06
4.16709e-06
-2.96138e-06
2.46712e-06
1.95022e-07
-1.53819e-06
3.83548e-06
-9.22602e-06
9.28663e-06
-2.06716e-05
1.57841e-05
-3.26707e-05
1.83046e-05
-3.84818e-05
1.86719e-05
-4.07416e-05
1.67353e-05
-4.31578e-05
1.32311e-05
1.04462e-05
-4.51663e-05
1.28042e-06
-8.01087e-06
9.94526e-07
-5.67698e-06
-1.22413e-06
-7.42569e-07
-6.32752e-06
5.29873e-06
-1.49376e-05
1.24458e-05
-2.42947e-05
1.86439e-05
-2.9967e-05
2.14564e-05
-3.29923e-05
2.13301e-05
-3.41905e-05
1.987e-05
-3.46406e-05
1.71853e-05
-3.54212e-05
1.40115e-05
1.11079e-05
-3.60831e-05
-1.71839e-06
-6.29241e-06
-4.68689e-06
-2.70839e-06
-9.3963e-06
3.96711e-06
-1.5806e-05
1.17087e-05
-2.1822e-05
1.84619e-05
-2.54453e-05
2.22674e-05
-2.68961e-05
2.29072e-05
-2.72898e-05
2.17238e-05
-2.72244e-05
1.98046e-05
-2.71226e-05
1.70834e-05
-2.71975e-05
1.40864e-05
1.11707e-05
-2.72605e-05
-3.65296e-06
-2.6393e-06
-8.54193e-06
2.18101e-06
-1.35786e-05
9.004e-06
-1.78943e-05
1.60247e-05
-2.04243e-05
2.09922e-05
-2.10168e-05
2.28601e-05
-2.06376e-05
2.25282e-05
-1.99511e-05
2.10372e-05
-1.90914e-05
1.89449e-05
-1.8411e-05
1.64029e-05
-1.7973e-05
1.36482e-05
1.08645e-05
-1.76669e-05
-4.8507e-06
2.21253e-06
-9.74223e-06
7.07278e-06
-1.35492e-05
1.28114e-05
-1.55833e-05
1.80594e-05
-1.57633e-05
2.11724e-05
-1.48011e-05
2.18983e-05
-1.34244e-05
2.11516e-05
-1.20121e-05
1.96251e-05
-1.07224e-05
1.7655e-05
-9.68838e-06
1.53689e-05
-8.93157e-06
1.28913e-05
1.03208e-05
-8.38792e-06
-5.20417e-06
7.41707e-06
-9.31903e-06
1.11882e-05
-1.157e-05
1.50627e-05
-1.17187e-05
1.82084e-05
-1.03257e-05
1.97798e-05
-8.29424e-06
1.9867e-05
-6.17347e-06
1.9031e-05
-4.21439e-06
1.7666e-05
-2.52503e-06
1.59658e-05
-1.16203e-06
1.40059e-05
-1.21375e-07
1.18506e-05
9.55389e-06
6.45522e-07
-5.18358e-06
1.26011e-05
-8.21012e-06
1.42148e-05
-8.83111e-06
1.56839e-05
-7.40555e-06
1.67831e-05
-4.83217e-06
1.72066e-05
-1.92358e-06
1.69585e-05
8.79296e-07
1.62283e-05
3.37761e-06
1.51678e-05
5.49498e-06
1.38484e-05
7.21118e-06
1.22897e-05
8.54955e-06
1.05123e-05
8.54486e-06
9.55856e-06
-4.59233e-06
1.71935e-05
-6.36984e-06
1.59924e-05
-5.26226e-06
1.45763e-05
-2.4419e-06
1.39628e-05
1.16845e-06
1.35964e-05
4.86804e-06
1.3259e-05
8.28869e-06
1.28077e-05
1.12758e-05
1.21807e-05
1.37829e-05
1.13413e-05
1.58165e-05
1.02561e-05
1.74193e-05
8.9094e-06
7.31662e-06
1.86475e-05
-4.04403e-06
2.12377e-05
-3.06907e-06
1.50175e-05
5.32452e-07
1.09748e-05
4.8419e-06
9.65331e-06
9.33446e-06
9.1038e-06
1.35718e-05
9.0217e-06
1.73273e-05
9.05217e-06
2.05284e-05
8.9796e-06
2.31796e-05
8.69008e-06
2.53199e-05
8.11589e-06
2.70142e-05
7.215e-06
6.0039e-06
2.8327e-05
5.69222e-07
2.06686e-05
6.08785e-06
9.49895e-06
1.19597e-05
5.10291e-06
1.72983e-05
4.31474e-06
2.19861e-05
4.41609e-06
2.60088e-05
4.99901e-06
2.94054e-05
5.65554e-06
3.22248e-05
6.16024e-06
3.45253e-05
6.38954e-06
3.63682e-05
6.273e-06
3.78311e-05
5.75209e-06
4.85918e-06
3.89759e-05
2.0408e-05
2.60736e-07
2.86903e-05
1.21661e-06
3.37486e-05
4.47109e-08
3.76072e-05
4.56154e-07
4.05795e-05
1.44379e-06
4.30135e-05
2.56496e-06
4.50507e-05
3.61843e-06
4.67351e-05
4.47585e-06
4.81e-05
5.02467e-06
4.91796e-05
5.19339e-06
5.00396e-05
4.89212e-06
5.07244e-05
4.17437e-06
-5.15724e-05
5.90475e-06
-5.55311e-05
3.95859e-06
-5.73551e-05
1.82392e-06
-5.74033e-05
4.80826e-08
-5.56427e-05
-1.76064e-06
-5.21711e-05
-3.47162e-06
-4.67227e-05
-5.44846e-06
-3.93333e-05
-7.38939e-06
-2.98041e-05
-9.52928e-06
-1.8378e-05
-1.14261e-05
-6.99547e-06
-1.13826e-05
-6.99549e-06
-4.68156e-05
7.55397e-06
-4.7644e-05
4.78685e-06
-4.79549e-05
2.13471e-06
-4.75513e-05
-3.55595e-07
-4.64687e-05
-2.84322e-06
-4.4429e-05
-5.51136e-06
-4.14246e-05
-8.45297e-06
-3.70765e-05
-1.17375e-05
-3.12231e-05
-1.53827e-05
-2.35531e-05
-1.9096e-05
-1.3126e-05
-2.18098e-05
-2.01215e-05
-3.66882e-05
8.15895e-06
-3.71619e-05
5.26047e-06
-3.74104e-05
2.38316e-06
-3.72425e-05
-5.23496e-07
-3.65031e-05
-3.5827e-06
-3.51253e-05
-6.8892e-06
-3.30041e-05
-1.05742e-05
-3.00083e-05
-1.47332e-05
-2.60517e-05
-1.93394e-05
-2.06544e-05
-2.44933e-05
-1.28005e-05
-2.96637e-05
-3.2922e-05
-2.73188e-05
8.21725e-06
-2.73146e-05
5.25617e-06
-2.71854e-05
2.25392e-06
-2.68549e-05
-8.5413e-07
-2.62597e-05
-4.17788e-06
-2.53275e-05
-7.8214e-06
-2.39651e-05
-1.19366e-05
-2.20445e-05
-1.66538e-05
-1.93514e-05
-2.20325e-05
-1.53954e-05
-2.84493e-05
-9.41224e-06
-3.56469e-05
-4.23343e-05
-1.74691e-05
8.01945e-06
-1.73279e-05
5.11491e-06
-1.7188e-05
2.11395e-06
-1.69926e-05
-1.04962e-06
-1.66971e-05
-4.47334e-06
-1.62506e-05
-8.26795e-06
-1.55938e-05
-1.25935e-05
-1.46619e-05
-1.75858e-05
-1.32516e-05
-2.34428e-05
-1.11425e-05
-3.05585e-05
-7.44634e-06
-3.93431e-05
-4.97806e-05
-8.02185e-06
7.65328e-06
-7.78957e-06
4.8826e-06
-7.6499e-06
1.9742e-06
-7.56778e-06
-1.13176e-06
-7.51894e-06
-4.52224e-06
-7.48052e-06
-8.30639e-06
-7.44689e-06
-1.26271e-05
-7.37761e-06
-1.76551e-05
-7.15777e-06
-2.36627e-05
-6.60356e-06
-3.11128e-05
-4.88191e-06
-4.10648e-05
-5.46626e-05
1.1788e-06
7.11997e-06
1.51514e-06
4.54621e-06
1.68292e-06
1.80639e-06
1.69819e-06
-1.14707e-06
1.56228e-06
-4.38636e-06
1.26339e-06
-8.00754e-06
7.74907e-07
-1.21387e-05
8.10334e-08
-1.69612e-05
-7.92915e-07
-2.27888e-05
-1.72569e-06
-3.01801e-05
-2.2526e-06
-4.0538e-05
-5.69152e-05
1.02842e-05
6.39426e-06
1.07603e-05
4.07012e-06
1.1007e-05
1.5597e-06
1.10266e-05
-1.1667e-06
1.08015e-05
-4.16132e-06
1.02906e-05
-7.49664e-06
9.42117e-06
-1.12692e-05
8.10157e-06
-1.56416e-05
6.23886e-06
-2.09261e-05
3.81602e-06
-2.77573e-05
1.21698e-06
-3.7939e-05
-5.56983e-05
1.95576e-05
5.48416e-06
2.01844e-05
3.44325e-06
2.05462e-05
1.19797e-06
2.06363e-05
-1.25689e-06
2.04234e-05
-3.94836e-06
1.98419e-05
-6.91518e-06
1.87699e-05
-1.01972e-05
1.70302e-05
-1.39018e-05
1.43773e-05
-1.82733e-05
1.05559e-05
-2.39359e-05
5.66328e-06
-3.30464e-05
-5.0035e-05
2.9328e-05
4.48311e-06
3.00521e-05
2.71914e-06
3.05196e-05
7.3043e-07
3.07197e-05
-1.45695e-06
3.06096e-05
-3.83827e-06
3.01052e-05
-6.4107e-06
2.90415e-05
-9.13357e-06
2.71636e-05
-1.20239e-05
2.40604e-05
-1.517e-05
1.92257e-05
-1.91012e-05
1.18459e-05
-2.56666e-05
-3.8189e-05
3.98868e-05
3.57219e-06
4.05883e-05
2.01764e-06
4.11039e-05
2.14802e-07
4.14202e-05
-1.77322e-06
4.14849e-05
-3.90287e-06
4.11999e-05
-6.12575e-06
4.03732e-05
-8.30682e-06
3.8706e-05
-1.03566e-05
3.56494e-05
-1.21135e-05
3.04638e-05
-1.39155e-05
2.06277e-05
-1.58304e-05
-1.75612e-05
5.13406e-05
2.95602e-06
5.18865e-05
1.47172e-06
5.23872e-05
-2.85824e-07
5.28202e-05
-2.20625e-06
5.31185e-05
-4.20113e-06
5.31728e-05
-6.17996e-06
5.2788e-05
-7.92206e-06
5.16935e-05
-9.26198e-06
4.93641e-05
-9.78401e-06
4.48627e-05
-9.41409e-06
3.45456e-05
-5.51328e-06
1.69845e-05
5.14198e-06
-5.14178e-06
8.74966e-06
-3.60743e-06
1.14845e-05
-2.73451e-06
1.29899e-05
-1.50466e-06
1.31598e-05
-1.6938e-07
1.15601e-05
1.60143e-06
7.21841e-06
4.34189e-06
9.11188e-07
6.30882e-06
-1.19545e-05
1.28653e-05
-2.64261e-05
1.44716e-05
-3.72362e-05
1.08097e-05
8.43444e-06
-4.5671e-05
1.5855e-06
-6.72719e-06
3.93741e-06
-5.95941e-06
4.16157e-06
-2.95821e-06
2.45985e-06
1.97931e-07
-1.54817e-06
3.83949e-06
-9.23972e-06
9.29372e-06
-2.06854e-05
1.57879e-05
-3.26782e-05
1.83018e-05
-3.84814e-05
1.86684e-05
-4.07393e-05
1.67294e-05
-4.31562e-05
1.32264e-05
1.04428e-05
-4.51648e-05
1.27901e-06
-8.00632e-06
9.91001e-07
-5.67143e-06
-1.23023e-06
-7.36737e-07
-6.33785e-06
5.30604e-06
-1.49507e-05
1.24527e-05
-2.43027e-05
1.8646e-05
-2.99679e-05
2.14533e-05
-3.29908e-05
2.13247e-05
-3.41873e-05
1.98649e-05
-3.46375e-05
1.71795e-05
-3.54183e-05
1.4007e-05
1.11044e-05
-3.608e-05
-1.71972e-06
-6.28667e-06
-4.6908e-06
-2.70027e-06
-9.40319e-06
3.97589e-06
-1.58131e-05
1.17163e-05
-2.18253e-05
1.84651e-05
-2.54439e-05
2.22649e-05
-2.68925e-05
2.29021e-05
-2.72858e-05
2.17181e-05
-2.72202e-05
1.97994e-05
-2.71189e-05
1.70782e-05
-2.71941e-05
1.40821e-05
1.11674e-05
-2.72572e-05
-3.65405e-06
-2.63249e-06
-8.54438e-06
2.19029e-06
-1.35807e-05
9.01254e-06
-1.78939e-05
1.60298e-05
-2.04207e-05
2.09923e-05
-2.10119e-05
2.28563e-05
-2.06328e-05
2.25231e-05
-1.99466e-05
2.10319e-05
-1.90873e-05
1.89401e-05
-1.84076e-05
1.63984e-05
-1.797e-05
1.36445e-05
1.08615e-05
-1.76642e-05
-4.85178e-06
2.21964e-06
-9.74172e-06
7.08062e-06
-1.35466e-05
1.28178e-05
-1.55788e-05
1.80624e-05
-1.57577e-05
2.11716e-05
-1.47959e-05
2.18948e-05
-1.34198e-05
2.11473e-05
-1.20083e-05
1.96206e-05
-1.07191e-05
1.76509e-05
-9.68574e-06
1.5365e-05
-8.9293e-06
1.2888e-05
1.03181e-05
-8.38601e-06
-5.20292e-06
7.42324e-06
-9.3162e-06
1.11943e-05
-1.15653e-05
1.50674e-05
-1.1713e-05
1.82105e-05
-1.03202e-05
1.97791e-05
-8.28951e-06
1.98644e-05
-6.16972e-06
1.90276e-05
-4.2114e-06
1.76624e-05
-2.5227e-06
1.59622e-05
-1.1602e-06
1.40026e-05
-1.19929e-07
1.18477e-05
9.55148e-06
6.46736e-07
-5.18172e-06
1.26052e-05
-8.20628e-06
1.42192e-05
-8.82601e-06
1.56873e-05
-7.40012e-06
1.67848e-05
-4.82729e-06
1.72064e-05
-1.91962e-06
1.69568e-05
8.82336e-07
1.62257e-05
3.37985e-06
1.51649e-05
5.49662e-06
1.38455e-05
7.21236e-06
1.22869e-05
8.55041e-06
1.05097e-05
8.54267e-06
9.55923e-06
-4.58999e-06
1.71956e-05
-6.36605e-06
1.59954e-05
-5.25761e-06
1.4579e-05
-2.4371e-06
1.39644e-05
1.17275e-06
1.35966e-05
4.87154e-06
1.3258e-05
8.29134e-06
1.28059e-05
1.12777e-05
1.21785e-05
1.37843e-05
1.13389e-05
1.58174e-05
1.02538e-05
1.74199e-05
8.90716e-06
7.31466e-06
1.8648e-05
-4.04243e-06
2.1238e-05
-3.06643e-06
1.50194e-05
5.36015e-07
1.09765e-05
4.84582e-06
9.65451e-06
9.33815e-06
9.10418e-06
1.35749e-05
9.02123e-06
1.73298e-05
9.05101e-06
2.05303e-05
8.97799e-06
2.3181e-05
8.68822e-06
2.53208e-05
8.11393e-06
2.70149e-05
7.2131e-06
6.00218e-06
2.83274e-05
5.69637e-07
2.06685e-05
6.08954e-06
9.49947e-06
1.19624e-05
5.10365e-06
1.73014e-05
4.31541e-06
2.19892e-05
4.41634e-06
2.60117e-05
4.99871e-06
2.94079e-05
5.65471e-06
3.22269e-05
6.15903e-06
3.4527e-05
6.38809e-06
3.63695e-05
6.27143e-06
3.78321e-05
5.75055e-06
4.85775e-06
3.89766e-05
2.04089e-05
2.59514e-07
2.8692e-05
1.21627e-06
3.37509e-05
4.47263e-08
3.761e-05
4.56288e-07
4.05825e-05
1.44377e-06
4.30165e-05
2.56465e-06
4.50534e-05
3.61778e-06
4.67375e-05
4.47494e-06
4.8102e-05
5.02357e-06
4.91813e-05
5.19222e-06
5.00409e-05
4.89094e-06
5.07254e-05
4.17328e-06
-5.15736e-05
5.90231e-06
-5.55306e-05
3.95675e-06
-5.73537e-05
1.82285e-06
-5.74011e-05
4.72694e-08
-5.56402e-05
-1.761e-06
-5.21685e-05
-3.47177e-06
-4.67202e-05
-5.44839e-06
-3.93311e-05
-7.38914e-06
-2.98023e-05
-9.52889e-06
-1.83768e-05
-1.14255e-05
-6.99494e-06
-1.13821e-05
-6.99499e-06
-4.68135e-05
7.55078e-06
-4.76417e-05
4.78472e-06
-4.79522e-05
2.13326e-06
-4.75486e-05
-3.56501e-07
-4.6466e-05
-2.84363e-06
-4.44265e-05
-5.5114e-06
-4.14223e-05
-8.45271e-06
-3.70745e-05
-1.17369e-05
-3.12215e-05
-1.53819e-05
-2.3552e-05
-1.9095e-05
-1.31255e-05
-2.18087e-05
-2.01205e-05
-3.66854e-05
8.15602e-06
-3.71592e-05
5.25832e-06
-3.74077e-05
2.38169e-06
-3.724e-05
-5.24353e-07
-3.65007e-05
-3.583e-06
-3.51231e-05
-6.88905e-06
-3.30022e-05
-1.05737e-05
-3.00067e-05
-1.47324e-05
-2.60504e-05
-1.93383e-05
-2.06535e-05
-2.44919e-05
-1.28e-05
-2.96623e-05
-3.29205e-05
-2.73159e-05
8.21458e-06
-2.73119e-05
5.25423e-06
-2.7183e-05
2.25268e-06
-2.68526e-05
-8.54772e-07
-2.62577e-05
-4.17798e-06
-2.53257e-05
-7.82104e-06
-2.39636e-05
-1.19359e-05
-2.20432e-05
-1.66528e-05
-1.93504e-05
-2.20312e-05
-1.53946e-05
-2.84477e-05
-9.41183e-06
-3.56451e-05
-4.23323e-05
-1.74668e-05
8.01707e-06
-1.73258e-05
5.11323e-06
-1.71861e-05
2.11288e-06
-1.69908e-05
-1.0501e-06
-1.66955e-05
-4.47331e-06
-1.62492e-05
-8.26744e-06
-1.55925e-05
-1.25925e-05
-1.46608e-05
-1.75845e-05
-1.32508e-05
-2.34412e-05
-1.11419e-05
-3.05566e-05
-7.44605e-06
-3.9341e-05
-4.97784e-05
-8.02015e-06
7.65119e-06
-7.78808e-06
4.88109e-06
-7.64851e-06
1.97328e-06
-7.56651e-06
-1.13215e-06
-7.51773e-06
-4.52212e-06
-7.47941e-06
-8.3058e-06
-7.44588e-06
-1.26261e-05
-7.37676e-06
-1.76536e-05
-7.15711e-06
-2.36609e-05
-6.60308e-06
-3.11107e-05
-4.88165e-06
-4.10625e-05
-5.46601e-05
1.17983e-06
7.11807e-06
1.51607e-06
4.54483e-06
1.68377e-06
1.80554e-06
1.69901e-06
-1.14742e-06
1.56308e-06
-4.38622e-06
1.26417e-06
-8.00692e-06
7.75643e-07
-1.21376e-05
8.16721e-08
-1.69597e-05
-7.92387e-07
-2.27869e-05
-1.72536e-06
-3.01778e-05
-2.25239e-06
-4.05356e-05
-5.69125e-05
1.02848e-05
6.39249e-06
1.07608e-05
4.06882e-06
1.10074e-05
1.55887e-06
1.1027e-05
-1.16705e-06
1.0802e-05
-4.1612e-06
1.02911e-05
-7.49605e-06
9.42168e-06
-1.12681e-05
8.10205e-06
-1.564e-05
6.23924e-06
-2.09241e-05
3.81628e-06
-2.77549e-05
1.21711e-06
-3.79364e-05
-5.56955e-05
1.95579e-05
5.48254e-06
2.01847e-05
3.44203e-06
2.05464e-05
1.19718e-06
2.06365e-05
-1.25724e-06
2.04236e-05
-3.94828e-06
1.98422e-05
-6.91464e-06
1.87702e-05
-1.01962e-05
1.70305e-05
-1.39003e-05
1.43776e-05
-1.82712e-05
1.05561e-05
-2.39334e-05
5.66336e-06
-3.30438e-05
-5.00321e-05
2.93283e-05
4.48167e-06
3.00523e-05
2.71802e-06
3.05197e-05
7.29702e-07
3.07198e-05
-1.45729e-06
3.06097e-05
-3.8382e-06
3.01053e-05
-6.41019e-06
2.90417e-05
-9.13257e-06
2.71638e-05
-1.20223e-05
2.40606e-05
-1.5168e-05
1.92259e-05
-1.90987e-05
1.18459e-05
-2.56638e-05
-3.81862e-05
3.98873e-05
3.57097e-06
4.05886e-05
2.01668e-06
4.11041e-05
2.14183e-07
4.14203e-05
-1.77348e-06
4.14849e-05
-3.90276e-06
4.12e-05
-6.12522e-06
4.03732e-05
-8.3058e-06
3.8706e-05
-1.0355e-05
3.56494e-05
-1.21114e-05
3.04638e-05
-1.3913e-05
2.06277e-05
-1.58277e-05
-1.75584e-05
5.13414e-05
2.95506e-06
5.18871e-05
1.47097e-06
5.23876e-05
-2.86287e-07
5.28205e-05
-2.20638e-06
5.31186e-05
-4.20091e-06
5.31728e-05
-6.17933e-06
5.27879e-05
-7.92095e-06
5.16933e-05
-9.26032e-06
4.93638e-05
-9.78186e-06
4.48625e-05
-9.41167e-06
3.45454e-05
-5.51062e-06
1.6987e-05
5.14292e-06
-5.14304e-06
8.75142e-06
-3.60851e-06
1.14869e-05
-2.7355e-06
1.29926e-05
-1.50527e-06
1.31625e-05
-1.69978e-07
1.15642e-05
1.59951e-06
7.2239e-06
4.33989e-06
9.17631e-07
6.3073e-06
-1.19466e-05
1.28637e-05
-2.64212e-05
1.44747e-05
-3.72346e-05
1.0813e-05
8.43662e-06
-4.56714e-05
1.58695e-06
-6.7301e-06
3.94049e-06
-5.96222e-06
4.16581e-06
-2.96062e-06
2.46499e-06
1.96035e-07
-1.54188e-06
3.83729e-06
-9.2319e-06
9.29e-06
-2.06783e-05
1.57864e-05
-3.26755e-05
1.83046e-05
-3.84834e-05
1.86715e-05
-4.07423e-05
1.67336e-05
-4.3159e-05
1.32296e-05
1.04451e-05
-4.51676e-05
1.27999e-06
-8.01013e-06
9.93416e-07
-5.67569e-06
-1.22626e-06
-7.40783e-07
-6.3314e-06
5.30151e-06
-1.49428e-05
1.24489e-05
-2.42984e-05
1.86458e-05
-2.99686e-05
2.14567e-05
-3.29932e-05
2.13292e-05
-3.41908e-05
1.9869e-05
-3.46409e-05
1.71837e-05
-3.54217e-05
1.40102e-05
1.11068e-05
-3.60835e-05
-1.71886e-06
-6.29119e-06
-4.68818e-06
-2.70627e-06
-9.39859e-06
3.9699e-06
-1.58086e-05
1.17117e-05
-2.18237e-05
1.84642e-05
-2.54458e-05
2.22682e-05
-2.6896e-05
2.29069e-05
-2.72896e-05
2.17228e-05
-2.72242e-05
1.98035e-05
-2.71226e-05
1.7082e-05
-2.71976e-05
1.40851e-05
1.11696e-05
-2.72605e-05
-3.65328e-06
-2.63775e-06
-8.54262e-06
2.18352e-06
-1.35794e-05
9.00686e-06
-1.78946e-05
1.60273e-05
-2.04239e-05
2.09938e-05
-2.10161e-05
2.28605e-05
-2.06369e-05
2.25279e-05
-1.99505e-05
2.10364e-05
-1.90909e-05
1.8944e-05
-1.84108e-05
1.64017e-05
-1.79729e-05
1.36472e-05
1.08635e-05
-1.76668e-05
-4.8509e-06
2.21434e-06
-9.74215e-06
7.07502e-06
-1.35487e-05
1.28139e-05
-1.55825e-05
1.80615e-05
-1.57622e-05
2.11738e-05
-1.48e-05
2.18987e-05
-1.34235e-05
2.11514e-05
-1.20114e-05
1.96245e-05
-1.07219e-05
1.76543e-05
-9.68806e-06
1.5368e-05
-8.93137e-06
1.28903e-05
1.03199e-05
-8.3878e-06
-5.20388e-06
7.41861e-06
-9.31843e-06
1.11901e-05
-1.1569e-05
1.50648e-05
-1.17175e-05
1.82103e-05
-1.03244e-05
1.97811e-05
-8.29302e-06
1.98675e-05
-6.17248e-06
1.90311e-05
-4.21363e-06
1.76657e-05
-2.52446e-06
1.59652e-05
-1.16163e-06
1.40051e-05
-1.21082e-07
1.18498e-05
9.553e-06
6.45759e-07
-5.18316e-06
1.26022e-05
-8.20934e-06
1.42164e-05
-8.82997e-06
1.56857e-05
-7.40416e-06
1.67847e-05
-4.83075e-06
1.72079e-05
-1.92229e-06
1.69592e-05
8.80369e-07
1.62285e-05
3.37846e-06
1.51677e-05
5.49564e-06
1.38481e-05
7.2117e-06
1.22891e-05
8.54998e-06
1.05115e-05
8.54402e-06
9.55895e-06
-4.59195e-06
1.71943e-05
-6.3691e-06
1.59937e-05
-5.26117e-06
1.45777e-05
-2.44054e-06
1.39642e-05
1.16987e-06
1.35975e-05
4.86936e-06
1.32598e-05
8.28983e-06
1.28081e-05
1.12767e-05
1.21808e-05
1.37837e-05
1.13411e-05
1.58171e-05
1.02557e-05
1.74199e-05
8.90872e-06
7.31581e-06
1.86481e-05
-4.04384e-06
2.12383e-05
-3.06859e-06
1.50185e-05
5.33304e-07
1.09759e-05
4.84302e-06
9.65444e-06
9.33568e-06
9.10487e-06
1.35729e-05
9.02256e-06
1.73283e-05
9.05273e-06
2.05293e-05
8.97984e-06
2.31804e-05
8.68999e-06
2.53206e-05
8.11549e-06
2.7015e-05
7.21437e-06
6.00311e-06
2.83277e-05
5.69229e-07
2.06692e-05
6.08815e-06
9.49963e-06
1.19603e-05
5.10372e-06
1.72991e-05
4.31569e-06
2.19869e-05
4.41707e-06
2.60096e-05
4.99987e-06
2.94062e-05
5.65614e-06
3.22255e-05
6.16052e-06
3.45261e-05
6.38948e-06
3.63689e-05
6.27262e-06
3.78319e-05
5.75146e-06
4.85837e-06
3.89766e-05
2.0408e-05
2.61245e-07
2.86904e-05
1.21729e-06
3.37487e-05
4.55091e-08
3.76073e-05
4.57083e-07
4.05796e-05
1.44473e-06
4.30138e-05
2.56578e-06
4.50509e-05
3.619e-06
4.67354e-05
4.47609e-06
4.81003e-05
5.02455e-06
4.918e-05
5.19294e-06
5.00401e-05
4.8914e-06
5.0725e-05
4.17346e-06
-5.15754e-05
5.9038e-06
-5.55334e-05
3.95783e-06
-5.73569e-05
1.8234e-06
-5.74046e-05
4.76236e-08
-5.56437e-05
-1.76095e-06
-5.21719e-05
-3.47186e-06
-4.67233e-05
-5.44862e-06
-3.93338e-05
-7.38948e-06
-2.98045e-05
-9.52931e-06
-1.83785e-05
-1.1426e-05
-6.99588e-06
-1.13827e-05
-6.9959e-06
-4.68166e-05
7.55275e-06
-4.76449e-05
4.78595e-06
-4.79555e-05
2.13399e-06
-4.75518e-05
-3.56177e-07
-4.64691e-05
-2.84366e-06
-4.44294e-05
-5.5117e-06
-4.14248e-05
-8.45323e-06
-3.70766e-05
-1.17376e-05
-3.12231e-05
-1.53828e-05
-2.35532e-05
-1.9096e-05
-1.31261e-05
-2.18098e-05
-2.0122e-05
-3.66887e-05
8.15785e-06
-3.71623e-05
5.25953e-06
-3.74108e-05
2.38236e-06
-3.72428e-05
-5.2416e-07
-3.65033e-05
-3.58322e-06
-3.51254e-05
-6.88962e-06
-3.30041e-05
-1.05745e-05
-3.00083e-05
-1.47334e-05
-2.60516e-05
-1.93396e-05
-2.06543e-05
-2.44934e-05
-1.28003e-05
-2.96638e-05
-3.29222e-05
-2.7319e-05
8.21621e-06
-2.73148e-05
5.25525e-06
-2.71856e-05
2.25313e-06
-2.6855e-05
-8.54803e-07
-2.62598e-05
-4.17845e-06
-2.53276e-05
-7.82187e-06
-2.39651e-05
-1.1937e-05
-2.20445e-05
-1.66541e-05
-1.93513e-05
-2.20327e-05
-1.53953e-05
-2.84494e-05
-9.41219e-06
-3.56469e-05
-4.23344e-05
-1.74691e-05
8.01847e-06
-1.7328e-05
5.11402e-06
-1.71881e-05
2.11316e-06
-1.69926e-05
-1.05032e-06
-1.66971e-05
-4.47395e-06
-1.62506e-05
-8.26847e-06
-1.55937e-05
-1.25939e-05
-1.46618e-05
-1.75861e-05
-1.32514e-05
-2.34431e-05
-1.11423e-05
-3.05586e-05
-7.44617e-06
-3.93431e-05
-4.97806e-05
-8.02178e-06
7.65235e-06
-7.7895e-06
4.88173e-06
-7.64982e-06
1.9734e-06
-7.56767e-06
-1.13249e-06
-7.51878e-06
-4.52289e-06
-7.48032e-06
-8.30694e-06
-7.44666e-06
-1.26276e-05
-7.37736e-06
-1.76554e-05
-7.15753e-06
-2.36629e-05
-6.60333e-06
-3.11129e-05
-4.88175e-06
-4.10647e-05
-5.46624e-05
1.17901e-06
7.11908e-06
1.51536e-06
4.54534e-06
1.68315e-06
1.80557e-06
1.69846e-06
-1.14783e-06
1.56259e-06
-4.38704e-06
1.26374e-06
-8.00812e-06
7.7528e-07
-1.21391e-05
8.1409e-08
-1.69615e-05
-7.92559e-07
-2.2789e-05
-1.72539e-06
-3.01801e-05
-2.25235e-06
-4.05379e-05
-5.69148e-05
1.02846e-05
6.39337e-06
1.07607e-05
4.06924e-06
1.10074e-05
1.55885e-06
1.1027e-05
-1.16749e-06
1.0802e-05
-4.16203e-06
1.02911e-05
-7.49724e-06
9.42169e-06
-1.12697e-05
8.10207e-06
-1.56419e-05
6.23931e-06
-2.09262e-05
3.81638e-06
-2.77572e-05
1.21722e-06
-3.79387e-05
-5.56976e-05
1.95582e-05
5.48329e-06
2.0185e-05
3.44237e-06
2.05468e-05
1.19711e-06
2.0637e-05
-1.25769e-06
2.0424e-05
-3.94908e-06
1.98426e-05
-6.91579e-06
1.87706e-05
-1.01977e-05
1.70308e-05
-1.39021e-05
1.43778e-05
-1.82733e-05
1.05563e-05
-2.39357e-05
5.66357e-06
-3.30459e-05
-5.0034e-05
2.93287e-05
4.48224e-06
3.00528e-05
2.71824e-06
3.05204e-05
7.29555e-07
3.07205e-05
-1.45777e-06
3.06104e-05
-3.839e-06
3.01059e-05
-6.4113e-06
2.90423e-05
-9.134e-06
2.71643e-05
-1.20241e-05
2.4061e-05
-1.517e-05
1.92262e-05
-1.91008e-05
1.18462e-05
-2.56659e-05
-3.81877e-05
3.98876e-05
3.57128e-06
4.05891e-05
2.01671e-06
4.11048e-05
2.139e-07
4.14211e-05
-1.77405e-06
4.14857e-05
-3.90359e-06
4.12007e-05
-6.1263e-06
4.0374e-05
-8.30716e-06
3.87066e-05
-1.03567e-05
3.56499e-05
-1.21133e-05
3.04641e-05
-1.3915e-05
2.06279e-05
-1.58296e-05
-1.75597e-05
5.13413e-05
2.95502e-06
5.18873e-05
1.47071e-06
5.23881e-05
-2.86784e-07
5.28211e-05
-2.2071e-06
5.31194e-05
-4.20182e-06
5.31736e-05
-6.18043e-06
5.27887e-05
-7.92227e-06
5.16939e-05
-9.26187e-06
4.93643e-05
-9.78359e-06
4.48628e-05
-9.41343e-06
3.45456e-05
-5.51229e-06
1.69859e-05
6.5576e-05
3.99162e-06
-6.93072e-05
6.49299e-05
1.86309e-06
6.36068e-05
1.36837e-06
6.28697e-05
1.19407e-06
6.26308e-05
1.68332e-06
6.26842e-05
2.51205e-06
6.28591e-05
3.44349e-06
6.30374e-05
4.29708e-06
6.31581e-05
4.90302e-06
6.3206e-05
5.14414e-06
6.32327e-05
4.86392e-06
4.1316e-06
6.32738e-05
8.41187e-05
3.09345e-06
-8.32206e-05
8.38035e-05
2.17825e-06
8.31458e-05
2.02604e-06
8.22881e-05
2.05178e-06
8.14399e-05
2.53149e-06
8.06204e-05
3.33161e-06
7.98014e-05
4.26251e-06
7.89563e-05
5.14215e-06
7.80871e-05
5.77227e-06
7.72321e-05
5.99917e-06
7.64943e-05
5.60175e-06
4.66204e-06
7.59639e-05
9.70591e-05
2.0856e-06
-9.60513e-05
9.73793e-05
1.85805e-06
9.73279e-05
2.07737e-06
9.69076e-05
2.47206e-06
9.62037e-05
3.23539e-06
9.52571e-05
4.27834e-06
9.40976e-05
5.422e-06
9.2773e-05
6.46682e-06
9.13646e-05
7.18069e-06
9.00035e-05
7.36027e-06
8.88753e-05
6.73003e-06
5.33326e-06
8.82041e-05
0.00010882
-0.000108211
1.47705e-06
0.000109085
1.59279e-06
0.00010902
2.14169e-06
0.000108584
2.90829e-06
0.000107787
4.03264e-06
0.000106668
5.39765e-06
0.00010529
6.79993e-06
0.000103759
7.99746e-06
0.000102231
8.70869e-06
0.000100933
8.65828e-06
0.00010013
7.53269e-06
0.000100264
5.1998e-06
6.34913e-05
2.73697e-06