/*--------------------------------*- C++ -*----------------------------------*\
| =========                 |                                                 |
| \\      /  F ield         | OpenFOAM: The Open Source CFD Toolbox           |
|  \\    /   O peration     | Version:  v1912                                 |
|   \\  /    A nd           | Website:  www.openfoam.com                      |
|    \\/     M anipulation  |                                                 |
\*---------------------------------------------------------------------------*/
FoamFile
{
    version     2.0;
    format      ascii;
    class       volVectorField;
    location    "450";
    object      U;
}
// * * * * * * * * * * * * * * * * * * * * * * * * * * * * * * * * * * * * * //

dimensions      [0 1 -1 0 0 0 0];


internalField   nonuniform List<vector> 
3072
(
(0.29176 2.21731 0)
(0.312299 1.9338 0)
(0.395451 1.76624 1.41821e-19)
(0.505292 1.65443 7.00479e-19)
(0.621927 1.5832 -1.17277e-18)
(0.7496 1.53056 6.89176e-19)
(0.870366 1.62121 3.61348e-19)
(1.19724 1.71839 1.31752e-18)
(2.07356 1.42778 -4.71707e-19)
(2.89037 1.64447 1.04095e-18)
(3.12923 2.04174 8.6938e-19)
(3.4067 2.1553 7.58455e-19)
(-0.375201 2.74225 -2.67082e-19)
(-0.21832 2.37797 -6.21322e-19)
(0.036698 2.33679 5.31547e-19)
(0.310083 2.33745 0)
(0.617248 2.40075 1.11714e-18)
(1.08046 2.39236 -1.45635e-18)
(1.92673 2.45859 0)
(2.64565 2.73496 0)
(2.98764 2.73144 0)
(3.12712 2.79399 8.26482e-19)
(3.15087 2.81068 -2.83664e-18)
(3.24476 2.79598 3.44884e-19)
(-0.348817 2.99331 1.75836e-19)
(-0.109551 2.70039 0)
(0.307208 2.73076 0)
(0.798579 2.75432 -3.73326e-18)
(1.45344 2.83849 1.3966e-18)
(2.1818 2.98502 -2.09796e-18)
(2.68399 3.00945 1.74595e-18)
(2.98396 2.99333 0)
(3.14404 2.86537 0)
(3.2296 2.76297 -1.00433e-18)
(3.27768 2.67688 -1.09327e-18)
(3.3489 2.59119 3.82723e-18)
(-0.309611 3.31996 -1.30244e-18)
(0.0813816 3.11829 -2.13799e-18)
(0.651257 3.21612 1.91739e-18)
(1.30656 3.28327 -1.85752e-18)
(1.9609 3.34537 3.65975e-18)
(2.47956 3.3237 -3.58115e-18)
(2.7859 3.20362 -2.12346e-18)
(2.96051 3.07302 -6.68883e-18)
(3.07505 2.91421 -3.15032e-19)
(3.13857 2.79189 3.60663e-18)
(3.18446 2.68501 4.03813e-18)
(3.23963 2.58309 -3.20224e-18)
(-0.0936549 3.53622 0)
(0.352239 3.49128 1.24084e-18)
(0.956701 3.60036 -2.8778e-18)
(1.59415 3.63642 3.26572e-18)
(2.14289 3.5897 6.12845e-19)
(2.50613 3.45318 2.10649e-18)
(2.71954 3.27982 2.37212e-18)
(2.85524 3.10866 2.39526e-18)
(2.94371 2.94033 -5.1159e-18)
(3.00663 2.79172 4.31654e-18)
(3.06041 2.66071 -5.83175e-18)
(3.1164 2.53982 7.70558e-18)
(0.11677 3.7304 -4.65571e-18)
(0.599838 3.78354 1.78754e-18)
(1.165 3.8687 5.24431e-18)
(1.7164 3.83976 0)
(2.14437 3.7107 -7.1751e-18)
(2.42063 3.52504 7.74623e-18)
(2.59771 3.32453 0)
(2.71997 3.13062 -5.8406e-18)
(2.81009 2.94753 4.96633e-18)
(2.88059 2.78294 0)
(2.94236 2.63616 2.85515e-19)
(3.00233 2.50248 4.51269e-18)
(0.331864 3.89558 0)
(0.798349 4.04085 -4.17651e-18)
(1.28687 4.07279 3.83591e-18)
(1.73094 3.98614 0)
(2.06707 3.80847 -4.42958e-18)
(2.2978 3.59265 7.17536e-19)
(2.46008 3.37075 6.25967e-18)
(2.58156 3.15853 5.79449e-18)
(2.67738 2.96112 -5.10289e-18)
(2.7567 2.78201 5.06861e-18)
(2.82688 2.62073 -4.38591e-18)
(2.89279 2.47433 -1.22997e-17)
(0.535863 4.08018 0)
(0.940338 4.2905 3.3719e-18)
(1.33218 4.25332 -4.87961e-18)
(1.67992 4.12217 4.88106e-18)
(1.954 3.91018 0)
(2.16038 3.66897 -6.35101e-18)
(2.3184 3.42637 6.29937e-18)
(2.44427 3.19556 1.27234e-19)
(2.54808 2.98155 -1.05746e-17)
(2.63636 2.78661 -4.97031e-18)
(2.71436 2.61042 -2.80053e-19)
(2.78599 2.45085 8.96455e-18)
(0.700912 4.2508 0)
(1.02879 4.52489 -3.77831e-18)
(1.31681 4.41041 -5.31162e-18)
(1.5852 4.23603 -3.81287e-18)
(1.81535 3.99487 7.76321e-18)
(2.00694 3.7314 0)
(2.16561 3.47 0)
(2.29863 3.22221 0)
(2.41182 2.99278 0)
(2.50949 2.78356 4.98017e-18)
(2.59542 2.59428 -5.02695e-18)
(2.67298 2.42306 4.81976e-18)
(0.831622 4.50925 0)
(1.02371 4.71944 2.66164e-18)
(1.21256 4.49926 -6.07732e-19)
(1.43005 4.26524 4.40011e-18)
(1.63354 3.99737 4.39657e-18)
(1.81839 3.71941 -7.07071e-18)
(1.98248 3.44951 0)
(2.1263 3.19569 -2.16768e-19)
(2.25185 2.96107 -1.7695e-17)
(2.36144 2.74669 0)
(2.45745 2.55219 1.10736e-17)
(2.54283 2.37574 -5.1971e-18)
(0.981534 4.56429 0)
(0.933552 4.68591 3.11164e-18)
(1.01626 4.37617 9.1149e-18)
(1.19677 4.08471 -7.78976e-18)
(1.38855 3.81492 -1.09032e-17)
(1.57774 3.55167 1.72845e-17)
(1.75472 3.30136 -1.95873e-19)
(1.91504 3.06674 -6.81144e-18)
(2.05738 2.84836 5.5858e-18)
(2.18272 2.64678 -1.19304e-17)
(2.29208 2.46185 -1.65903e-17)
(2.38822 2.29211 1.68263e-17)
(0.400235 4.17952 -1.83981e-18)
(0.559528 4.1014 -1.22184e-17)
(0.684883 3.80062 2.35118e-18)
(0.877676 3.55647 0)
(1.09063 3.36589 0)
(1.30054 3.17738 3.59141e-19)
(1.49676 2.99132 1.84626e-17)
(1.67584 2.81006 1.1419e-17)
(1.83629 2.63483 0)
(1.97866 2.46792 1.0802e-17)
(2.10275 2.31047 0)
(2.21132 2.16207 4.9613e-19)
(3.65733 2.25023 3.77411e-20)
(3.88339 2.17245 -3.12724e-19)
(4.04225 2.09864 -3.61393e-19)
(4.1277 1.94452 -5.85689e-19)
(4.14381 1.80496 -2.9441e-19)
(4.09561 1.61121 0)
(3.97023 1.43174 0)
(3.7657 1.22868 8.04162e-19)
(3.48439 1.02961 -9.43216e-19)
(3.10247 0.787638 0)
(2.68137 0.377758 0)
(2.53612 -0.222732 -6.5785e-20)
(3.34226 2.77147 1.70167e-18)
(3.43572 2.72268 0)
(3.53053 2.63861 -8.89249e-19)
(3.62265 2.51546 5.20476e-19)
(3.70179 2.35666 3.00974e-19)
(3.74049 2.19625 2.67543e-18)
(3.73517 2.03934 -4.35379e-18)
(3.67774 1.89525 6.78447e-19)
(3.56692 1.78351 0)
(3.32575 1.67981 0)
(3.04988 1.53933 0)
(3.19069 1.02252 7.28036e-19)
(3.4164 2.5047 1.60575e-18)
(3.48834 2.4144 -4.36263e-18)
(3.55839 2.31992 1.21855e-18)
(3.61849 2.22141 2.94497e-18)
(3.6593 2.12505 -2.97307e-18)
(3.6756 2.03265 0)
(3.66144 1.95569 0)
(3.61796 1.9043 -2.37958e-19)
(3.55255 1.88174 1.09518e-18)
(3.41675 1.87371 0)
(3.19976 1.86306 0)
(3.41298 1.7432 -4.68611e-19)
(3.293 2.4852 3.54674e-19)
(3.34799 2.38972 4.33398e-18)
(3.40162 2.29498 3.05751e-18)
(3.45067 2.20181 -3.03885e-18)
(3.49035 2.1148 0)
(3.51628 2.03973 1.7505e-18)
(3.52458 1.98451 0)
(3.51827 1.95865 2.50768e-18)
(3.49395 1.96272 -7.73528e-19)
(3.42655 2.02027 0)
(3.24913 2.10411 -5.5126e-19)
(3.54744 2.15335 6.60199e-19)
(3.17185 2.42718 -3.13029e-18)
(3.22798 2.32139 0)
(3.283 2.22176 0)
(3.33447 2.12969 0)
(3.37974 2.04894 0)
(3.41731 1.98434 -3.16677e-18)
(3.44564 1.94448 -1.41954e-19)
(3.46412 1.9361 -1.41189e-18)
(3.47936 1.96848 0)
(3.47616 2.05734 -1.23381e-18)
(3.36105 2.20082 4.92188e-19)
(3.77425 2.39989 -1.68923e-19)
(3.06098 2.37983 -2.48462e-19)
(3.11929 2.26683 -7.37892e-18)
(3.17672 2.16303 3.46552e-18)
(3.23227 2.0696 3.16533e-21)
(3.28506 1.98952 2.26085e-19)
(3.33484 1.92719 4.9011e-18)
(3.38249 1.88883 -1.56264e-19)
(3.43004 1.88158 -5.43443e-18)
(3.47955 1.91634 -2.17708e-18)
(3.53342 2.01025 1.08981e-18)
(3.47924 2.19989 -1.34142e-18)
(3.93862 2.52098 -5.41515e-19)
(2.95605 2.34084 1.17393e-17)
(3.01795 2.21883 3.83587e-18)
(3.07895 2.1079 0)
(3.13933 2.00887 0)
(3.19967 1.92403 2.12999e-19)
(3.26125 1.85698 -3.54916e-18)
(3.32648 1.81288 5.53527e-18)
(3.39897 1.79853 -1.30112e-19)
(3.4822 1.82497 1.85727e-18)
(3.58256 1.91184 0)
(3.60346 2.10086 -2.41113e-19)
(4.09857 2.50846 -7.96778e-20)
(2.85336 2.3059 -4.29908e-18)
(2.91829 2.17391 -3.95432e-18)
(2.98209 2.05419 4.23657e-18)
(3.0461 1.94707 -3.95309e-18)
(3.11202 1.85404 8.3902e-22)
(3.18245 1.77764 7.77721e-18)
(3.26136 1.72161 -3.55137e-18)
(3.35447 1.69182 1.99587e-18)
(3.46763 1.69855 0)
(3.61295 1.76283 1.19721e-18)
(3.71064 1.93737 6.10586e-19)
(4.20413 2.39079 -9.19466e-19)
(2.74438 2.26784 4.67682e-18)
(2.81196 2.12651 -4.52885e-18)
(2.87768 1.99799 -4.22351e-18)
(2.94365 1.88192 -8.77461e-18)
(3.01246 1.77897 8.41171e-18)
(3.08771 1.69056 -8.03172e-18)
(3.17488 1.6186 0)
(3.28207 1.56717 -1.88977e-18)
(3.4184 1.54428 0)
(3.6031 1.57034 0)
(3.78072 1.70889 0)
(4.26227 2.13267 4.3797e-19)
(2.61957 2.21541 5.04412e-18)
(2.69045 2.06853 -1.01411e-17)
(2.75783 1.93392 9.87683e-18)
(2.82428 1.81059 9.45317e-18)
(2.89288 1.69838 4.54916e-18)
(2.96821 1.59763 0)
(3.05701 1.50807 0)
(3.16929 1.43125 4.35792e-18)
(3.31805 1.37099 0)
(3.53267 1.34441 -1.21538e-18)
(3.77231 1.40812 7.92701e-19)
(4.24871 1.723 -1.27085e-18)
(2.47239 2.13631 -1.10574e-17)
(2.5478 1.99122 1.02116e-17)
(2.61693 1.85621 -9.97424e-18)
(2.68252 1.72981 -2.50163e-17)
(2.74779 1.6115 -2.4837e-19)
(2.81779 1.50073 1.3481e-19)
(2.9007 1.39495 -4.74816e-18)
(3.00689 1.29243 -4.31657e-18)
(3.15333 1.19082 0)
(3.37773 1.1016 3.63508e-18)
(3.65022 1.0364 8.9293e-19)
(4.11866 1.02669 -1.78255e-18)
(2.30375 2.02286 -4.93459e-19)
(2.38379 1.88865 0)
(2.45359 1.76069 0)
(2.51568 1.63715 4.77862e-18)
(2.57393 1.5177 1.4558e-17)
(2.6331 1.40144 -4.74627e-18)
(2.70257 1.28424 -2.19865e-19)
(2.79078 1.16112 -2.41239e-18)
(2.91684 1.02227 -2.23359e-18)
(3.10852 0.869039 -2.24646e-18)
(3.39009 0.645754 0)
(3.71839 -0.0320602 2.32306e-18)
(2.21709 -0.292019 3.04934e-23)
(1.93363 -0.312407 0)
(1.76614 -0.395511 -1.41782e-19)
(1.65432 -0.505304 0)
(1.58312 -0.621951 -5.95898e-19)
(1.53045 -0.749563 6.88256e-19)
(1.62091 -0.870281 0)
(1.71837 -1.19686 9.72504e-19)
(1.42779 -2.07257 -3.96294e-19)
(1.64392 -2.89013 -8.32025e-20)
(2.04135 -3.12932 -8.48765e-19)
(2.155 -3.40665 -7.58426e-19)
(2.74211 0.375134 -3.40917e-19)
(2.37792 0.21834 -1.91735e-19)
(2.33663 -0.0366561 6.20265e-19)
(2.33725 -0.310029 0)
(2.40047 -0.617081 -1.11716e-18)
(2.39232 -1.07986 6.37597e-19)
(2.45815 -1.92602 0)
(2.73463 -2.64547 9.49862e-19)
(2.73127 -2.98774 -2.35132e-18)
(2.79374 -3.12735 1.9728e-18)
(2.81057 -3.15107 1.54067e-18)
(2.79587 -3.24487 -3.89406e-18)
(2.99322 0.348798 -1.7585e-19)
(2.70027 0.10965 0)
(2.73058 -0.307019 -1.67734e-18)
(2.7541 -0.798183 0)
(2.83812 -1.45285 0)
(2.98471 -2.18145 -8.21522e-19)
(3.00923 -2.68396 4.00457e-18)
(2.9932 -2.98414 -2.7755e-18)
(2.86529 -3.14422 9.56792e-19)
(2.76285 -3.22983 0)
(2.67678 -3.27788 2.67361e-18)
(2.5911 -3.34905 -1.62735e-18)
(3.31995 0.309774 8.45709e-19)
(3.11817 -0.0811069 1.25549e-18)
(3.21595 -0.650874 1.40112e-18)
(3.28304 -1.30614 2.81795e-18)
(3.34516 -1.96062 -1.68956e-18)
(3.3236 -2.47959 -1.19849e-18)
(3.20356 -2.78608 0)
(3.07297 -2.96075 0)
(2.91415 -3.07528 2.17003e-18)
(2.79181 -3.1388 0)
(2.68494 -3.18465 5.02547e-19)
(2.58302 -3.23978 1.39536e-18)
(3.53625 0.0938571 1.29194e-18)
(3.49122 -0.351921 -9.95347e-19)
(3.60029 -0.956367 -2.87846e-18)
(3.63637 -1.59393 0)
(3.58972 -2.14287 0)
(3.45321 -2.50631 2.98084e-18)
(3.27983 -2.71976 0)
(3.10864 -2.85548 -5.75679e-18)
(2.9403 -2.94393 -2.45349e-18)
(2.79167 -3.00682 4.31724e-18)
(2.66065 -3.06057 -5.83257e-18)
(2.53976 -3.11653 3.65572e-18)
(3.7305 -0.11652 -2.62532e-18)
(3.78355 -0.599557 -1.52919e-18)
(3.86876 -1.16477 2.23967e-18)
(3.83987 -1.71631 3.9443e-19)
(3.71081 -2.14444 3.61987e-18)
(3.52512 -2.4208 -7.41689e-18)
(3.32456 -2.59791 6.78366e-18)
(3.13061 -2.72017 6.89958e-19)
(2.9475 -2.81026 0)
(2.78289 -2.88074 0)
(2.63611 -2.94249 8.79159e-18)
(2.50242 -3.00244 5.97747e-20)
(3.89569 -0.331676 -3.06237e-20)
(4.04092 -0.798154 -2.30814e-18)
(4.07293 -1.28673 0)
(3.9863 -1.7309 -4.52005e-18)
(3.80861 -2.06714 4.71918e-18)
(3.59274 -2.29794 1.12891e-17)
(3.37079 -2.46024 6.92282e-18)
(3.15853 -2.58171 8.86451e-19)
(2.96109 -2.67751 -1.07634e-17)
(2.78196 -2.75682 4.71169e-18)
(2.62067 -2.82698 5.04363e-18)
(2.47427 -2.89286 2.71941e-19)
(4.08028 -0.53572 2.1916e-19)
(4.2906 -0.940209 3.3717e-18)
(4.25348 -1.3321 0)
(4.12234 -1.6799 -4.88132e-18)
(3.91032 -1.95405 -3.55789e-18)
(3.66906 -2.16048 6.43632e-19)
(3.42642 -2.31851 -1.1897e-17)
(3.19556 -2.44438 4.29772e-19)
(2.98152 -2.54819 -2.7551e-19)
(2.78656 -2.63645 5.225e-18)
(2.61036 -2.71443 -4.22066e-18)
(2.45078 -2.78604 2.24285e-19)
(4.2509 -0.700843 -3.42801e-18)
(4.52499 -1.02871 1.51167e-18)
(4.41055 -1.31674 -7.73074e-18)
(4.23618 -1.58518 3.81267e-18)
(3.995 -1.81537 0)
(3.73149 -2.007 0)
(3.47004 -2.16568 6.50397e-18)
(3.22222 -2.29871 1.19179e-17)
(2.99275 -2.41189 -5.45874e-18)
(2.78351 -2.50956 -4.98039e-18)
(2.59422 -2.59548 -4.78342e-18)
(2.42299 -2.67302 0)
(4.50933 -0.831623 7.20075e-20)
(4.71949 -1.02366 4.04705e-18)
(4.49935 -1.21251 9.17164e-18)
(4.26534 -1.43002 0)
(3.99747 -1.63354 7.66979e-18)
(3.71948 -1.81841 0)
(3.44955 -1.98252 3.38169e-19)
(3.1957 -2.12635 -5.70737e-18)
(2.96104 -2.2519 6.20098e-18)
(2.74665 -2.36149 0)
(2.55213 -2.4575 0)
(2.37568 -2.54286 -1.0726e-17)
(4.56431 -0.981551 -6.51578e-18)
(4.68592 -0.933518 3.11149e-18)
(4.37621 -1.01622 5.199e-19)
(4.08476 -1.19674 -8.59285e-18)
(3.81498 -1.38854 -3.37065e-18)
(3.55172 -1.57775 -3.45538e-18)
(3.30139 -1.75474 -6.73974e-18)
(3.06675 -1.91507 -1.90592e-17)
(2.84834 -2.05742 -5.58557e-18)
(2.64675 -2.18276 -1.193e-17)
(2.4618 -2.29212 1.16004e-17)
(2.29206 -2.38826 1.06801e-17)
(4.17953 -0.400258 3.5215e-18)
(4.10139 -0.559512 -1.40096e-18)
(3.80062 -0.684861 3.52829e-19)
(3.5565 -0.877653 7.31828e-18)
(3.36593 -1.09061 0)
(3.17742 -1.30054 -6.63058e-18)
(2.99134 -1.49677 5.94515e-18)
(2.81007 -1.67587 5.30242e-18)
(2.63483 -1.83633 -1.72908e-17)
(2.4679 -1.9787 1.08017e-17)
(2.31044 -2.10279 -1.05947e-17)
(2.16203 -2.21136 0)
(2.25015 -3.65734 -3.79512e-19)
(2.17234 -3.88339 9.22356e-19)
(2.09863 -4.04231 -9.31386e-19)
(1.94449 -4.12774 -2.29545e-19)
(1.80498 -4.1439 -1.39507e-19)
(1.61122 -4.09567 8.24903e-20)
(1.43177 -3.97032 -1.28608e-19)
(1.2287 -3.76576 -3.22858e-19)
(1.02964 -3.48447 -9.43198e-19)
(0.787666 -3.10252 0)
(0.377796 -2.68142 0)
(-0.222645 -2.53618 -6.57711e-20)
(2.77135 -3.3424 -6.53308e-20)
(2.72261 -3.43582 2.18139e-18)
(2.63857 -3.53062 -8.89203e-19)
(2.51546 -3.62273 0)
(2.35667 -3.70186 1.75269e-18)
(2.19628 -3.74056 0)
(2.03937 -3.73523 1.30422e-18)
(1.89529 -3.6778 2.24216e-18)
(1.78355 -3.56697 -1.90518e-18)
(1.67986 -3.32577 0)
(1.53939 -3.04991 0)
(1.02263 -3.19071 -3.00603e-20)
(2.50463 -3.41654 1.15746e-18)
(2.41435 -3.48844 -1.08191e-18)
(2.31988 -3.55848 1.21865e-18)
(2.22139 -3.61857 0)
(2.12505 -3.65937 -1.3071e-18)
(2.03266 -3.67565 3.27632e-18)
(1.95572 -3.66149 -4.72886e-18)
(1.90433 -3.618 -5.24287e-18)
(1.88179 -3.55258 3.07823e-18)
(1.87377 -3.41677 0)
(1.86313 -3.19976 6.12836e-19)
(1.7433 -3.41298 1.51987e-19)
(2.48515 -3.29314 1.3398e-18)
(2.38968 -3.3481 -3.02028e-18)
(2.29496 -3.40171 3.05772e-18)
(2.2018 -3.45074 -3.03903e-18)
(2.1148 -3.4904 0)
(2.03975 -3.51632 1.75053e-18)
(1.98454 -3.52462 1.17321e-18)
(1.95869 -3.5183 6.90263e-19)
(1.96277 -3.49397 -1.57048e-18)
(2.02034 -3.42657 0)
(2.1042 -3.24914 -3.54672e-19)
(2.15347 -3.54745 5.91995e-19)
(2.42713 -3.17195 3.50822e-18)
(2.32135 -3.22806 -1.80998e-18)
(2.22173 -3.28307 0)
(2.12968 -3.33452 0)
(2.04894 -3.37978 1.72864e-18)
(1.98436 -3.41734 -1.44756e-18)
(1.94451 -3.44567 -2.57792e-19)
(1.93614 -3.46414 0)
(1.96854 -3.47937 -8.37064e-19)
(2.05741 -3.47617 1.2337e-18)
(2.20091 -3.36105 -1.07774e-18)
(2.40001 -3.77425 -2.72283e-19)
(2.37977 -3.06106 -7.45271e-18)
(2.26679 -3.11936 3.55792e-18)
(2.163 -3.17676 7.16356e-18)
(2.06959 -3.2323 3.16476e-21)
(1.98952 -3.28508 -8.48562e-18)
(1.92721 -3.33485 -3.59022e-18)
(1.88885 -3.3825 -2.46442e-19)
(1.88162 -3.43004 0)
(1.91639 -3.47955 0)
(2.01033 -3.53342 -1.08978e-18)
(2.19999 -3.47924 -7.80743e-19)
(2.5211 -3.93862 2.37534e-19)
(2.34078 -2.95611 4.01175e-18)
(2.21878 -3.018 -7.90225e-18)
(2.10786 -3.07898 -3.50253e-18)
(2.00884 -3.13935 -2.02764e-19)
(1.92402 -3.19968 3.35423e-18)
(1.85698 -3.26125 3.30923e-18)
(1.8129 -3.32648 1.86596e-18)
(1.79857 -3.39896 1.8162e-18)
(1.82502 -3.48219 -2.01471e-18)
(1.91191 -3.58255 0)
(2.10095 -3.60345 1.25429e-18)
(2.50859 -4.09857 -3.6061e-19)
(2.30584 -2.8534 0)
(2.17385 -2.91832 3.95449e-18)
(2.05415 -2.98211 0)
(1.94704 -3.0461 -2.01817e-19)
(1.85403 -3.11202 8.40163e-22)
(1.77764 -3.18244 7.77731e-18)
(1.72163 -3.26135 -1.67767e-18)
(1.69186 -3.35446 -3.89438e-18)
(1.6986 -3.46761 -2.13279e-18)
(1.76289 -3.61294 1.19719e-18)
(1.93746 -3.71063 -2.3356e-18)
(2.39091 -4.20412 1.17381e-18)
(2.26777 -2.74441 4.67696e-18)
(2.12645 -2.81198 -4.52896e-18)
(1.99794 -2.87769 -4.57994e-18)
(1.88189 -2.94365 4.46766e-18)
(1.77895 -3.01245 4.20908e-18)
(1.69056 -3.0877 -1.23027e-17)
(1.61861 -3.17485 0)
(1.5672 -3.28204 1.88975e-18)
(1.54432 -3.41838 1.94461e-18)
(1.5704 -3.60308 0)
(1.70897 -3.7807 2.84854e-18)
(2.13278 -4.26226 -2.08216e-18)
(2.21535 -2.61959 0)
(2.06848 -2.69046 -1.01412e-17)
(1.93387 -2.75784 -5.26192e-18)
(1.81055 -2.82427 -9.16927e-18)
(1.69836 -2.89286 4.54914e-18)
(1.59762 -2.96819 4.28186e-18)
(1.50808 -3.05698 0)
(1.43127 -3.16925 0)
(1.37103 -3.31801 0)
(1.34446 -3.53264 0)
(1.40819 -3.77229 -7.94996e-19)
(1.72309 -4.24869 -1.03907e-19)
(2.13626 -2.47241 5.38804e-18)
(1.99117 -2.54781 4.94672e-18)
(1.85617 -2.61694 2.05278e-17)
(1.72977 -2.68251 5.2651e-18)
(1.61148 -2.74777 1.9744e-17)
(1.50072 -2.81776 -4.7469e-18)
(1.39495 -2.90066 -4.74804e-18)
(1.29244 -3.00685 0)
(1.19085 -3.15328 -4.48868e-18)
(1.10164 -3.37769 -2.41745e-18)
(1.03645 -3.65018 -1.83003e-18)
(1.02676 -4.11863 -1.10757e-25)
(2.02282 -2.30378 0)
(1.88861 -2.38381 0)
(1.76065 -2.45359 -2.0439e-17)
(1.63712 -2.51567 -1.48683e-17)
(1.51768 -2.57391 -4.69491e-18)
(1.40144 -2.63307 0)
(1.28424 -2.70253 4.71146e-18)
(1.16114 -2.79072 0)
(1.0223 -2.91678 -1.96189e-19)
(0.869076 -3.10847 2.24637e-18)
(0.645794 -3.39004 6.58747e-19)
(-0.0320332 -3.71835 4.59876e-18)
(-0.292129 -2.21709 1.1692e-19)
(-0.312525 -1.93366 1.83882e-19)
(-0.39563 -1.76622 -1.65668e-19)
(-0.505432 -1.65444 5.76599e-21)
(-0.622022 -1.58321 0)
(-0.749709 -1.53057 2.41978e-20)
(-0.870455 -1.62126 0)
(-1.19737 -1.71837 5.0772e-19)
(-2.07379 -1.42778 1.16386e-18)
(-2.89038 -1.64461 -3.08983e-20)
(-3.12915 -2.04183 7.74975e-19)
(-3.40667 -2.15536 7.80611e-19)
(0.374997 -2.74213 4.47619e-19)
(0.218197 -2.37802 -6.22053e-19)
(-0.0367844 -2.33681 5.76541e-19)
(-0.310116 -2.33749 -9.25316e-21)
(-0.617275 -2.40085 -1.11904e-18)
(-1.08055 -2.39236 -2.03293e-19)
(-1.92687 -2.45866 -1.10028e-18)
(-2.64562 -2.735 -1.49717e-18)
(-2.98754 -2.73142 2.17683e-18)
(-3.127 -2.794 -5.36651e-19)
(-3.15077 -2.81065 7.42407e-19)
(-3.2447 -2.79596 4.59417e-19)
(0.348574 -2.99322 -3.51921e-19)
(0.109395 -2.70036 0)
(-0.30729 -2.73071 0)
(-0.798635 -2.75429 -1.58883e-18)
(-1.45352 -2.8385 0)
(-2.18186 -2.98503 -1.27664e-18)
(-2.68393 -3.00943 6.68999e-19)
(-2.98386 -2.9933 2.44409e-18)
(-3.14394 -2.86532 -1.22006e-18)
(-3.22949 -2.76295 -1.77586e-18)
(-3.27758 -2.67685 -3.76742e-18)
(-3.34882 -2.59117 3.82763e-18)
(0.309468 -3.31993 -1.69237e-18)
(-0.0815265 -3.11823 -1.25645e-18)
(-0.651381 -3.21606 2.47374e-18)
(-1.30666 -3.28323 9.59452e-19)
(-1.96095 -3.34534 0)
(-2.47952 -3.32364 -4.4319e-18)
(-2.78579 -3.20356 3.22515e-18)
(-2.9604 -3.07297 0)
(-3.07495 -2.91416 3.21983e-18)
(-3.13846 -2.79186 -5.17748e-18)
(-3.18437 -2.68498 3.53545e-18)
(-3.23956 -2.58305 4.87647e-19)
(0.0935472 -3.53617 1.9708e-18)
(-0.35238 -3.49124 3.04477e-18)
(-0.95682 -3.60032 9.56482e-19)
(-1.59422 -3.63637 0)
(-2.14288 -3.58963 -2.71843e-18)
(-2.50605 -3.45311 4.5293e-18)
(-2.71944 -3.27976 0)
(-2.85514 -3.10861 -3.14342e-18)
(-2.94362 -2.94028 -2.93815e-18)
(-3.00654 -2.79168 4.31614e-18)
(-3.06034 -2.66067 0)
(-3.11635 -2.53979 -3.31026e-18)
(-0.116864 -3.73035 2.03075e-18)
(-0.599953 -3.78351 7.27893e-19)
(-1.16509 -3.86865 -2.23907e-18)
(-1.71643 -3.8397 -8.92412e-18)
(-2.14433 -3.71062 -3.08312e-19)
(-2.42056 -3.52497 7.74601e-18)
(-2.59763 -3.32447 0)
(-2.7199 -3.13057 8.82034e-18)
(-2.81002 -2.94749 -5.15126e-18)
(-2.88052 -2.78291 4.50918e-18)
(-2.94231 -2.63613 2.85467e-19)
(-3.00229 -2.50245 -5.97526e-20)
(-0.331946 -3.89555 -1.89853e-18)
(-0.798432 -4.04082 -1.48125e-18)
(-1.28692 -4.07274 0)
(-1.73095 -3.98608 9.78184e-18)
(-2.06703 -3.80841 -1.33084e-17)
(-2.29775 -3.5926 -2.2002e-19)
(-2.46002 -3.3707 -1.31797e-17)
(-2.5815 -3.15849 5.47214e-19)
(-2.67732 -2.96109 -5.1023e-18)
(-2.75665 -2.78198 -5.06802e-18)
(-2.82684 -2.6207 5.04252e-18)
(-2.89275 -2.47431 -4.16829e-18)
(-0.535926 -4.08016 -1.69177e-19)
(-0.940399 -4.29047 -1.82306e-18)
(-1.33222 -4.25327 0)
(-1.67992 -4.12211 4.88038e-18)
(-1.95397 -3.91013 3.34068e-18)
(-2.16034 -3.66892 2.98454e-18)
(-2.31835 -3.42634 -5.19482e-19)
(-2.44422 -3.19553 -1.27221e-19)
(-2.54804 -2.98152 -5.67511e-18)
(-2.63632 -2.78658 -6.10456e-19)
(-2.71432 -2.6104 2.37544e-19)
(-2.78596 -2.45082 0)
(-0.700964 -4.25078 2.13398e-18)
(-1.02883 -4.52486 0)
(-1.31682 -4.41036 0)
(-1.58519 -4.23597 -3.81253e-18)
(-1.81532 -3.99482 3.39663e-18)
(-2.0069 -3.73136 -7.04024e-18)
(-2.16556 -3.46996 0)
(-2.29859 -3.22218 5.83394e-18)
(-2.41177 -2.99275 -2.47563e-19)
(-2.50945 -2.78353 4.97964e-18)
(-2.59539 -2.59425 -5.22199e-18)
(-2.67295 -2.42303 1.00444e-17)
(-0.831647 -4.50923 4.37535e-18)
(-1.02373 -4.71941 -1.38586e-18)
(-1.21257 -4.49921 -4.88994e-18)
(-1.43004 -4.26518 -8.45063e-18)
(-1.63351 -3.99731 0)
(-1.81834 -3.71936 6.39743e-18)
(-1.98243 -3.44946 -1.29896e-17)
(-2.12625 -3.19565 5.78079e-18)
(-2.25181 -2.96103 6.2004e-18)
(-2.36141 -2.74666 0)
(-2.45742 -2.55215 -5.92338e-18)
(-2.5428 -2.3757 -9.99489e-18)
(-0.981559 -4.56428 -6.46346e-18)
(-0.933559 -4.68588 1.4153e-18)
(-1.01625 -4.37612 4.29729e-18)
(-1.19674 -4.08464 3.64238e-18)
(-1.38851 -3.81485 -5.00308e-20)
(-1.57769 -3.55161 -1.0692e-17)
(-1.75466 -3.3013 1.2793e-17)
(-1.91498 -3.06669 2.50598e-17)
(-2.05734 -2.84831 -1.75708e-17)
(-2.18268 -2.64674 -1.19293e-17)
(-2.29204 -2.46181 1.09382e-17)
(-2.3882 -2.29207 0)
(-0.400219 -4.17948 5.4386e-18)
(-0.559501 -4.10134 1.85288e-18)
(-0.684854 -3.80054 1.99826e-18)
(-0.877639 -3.55639 7.87039e-18)
(-1.09058 -3.36581 0)
(-1.30049 -3.17731 6.27129e-18)
(-1.49671 -2.99125 -1.25163e-17)
(-1.67579 -2.81 -5.5482e-18)
(-1.83625 -2.63478 -5.69037e-18)
(-1.97863 -2.46786 1.08014e-17)
(-2.10272 -2.31042 5.65974e-18)
(-2.2113 -2.16202 1.62732e-17)
(-3.65728 -2.25023 1.03254e-19)
(-3.88336 -2.17248 6.06574e-19)
(-4.04221 -2.09864 2.58299e-19)
(-4.12767 -1.94453 -5.92213e-19)
(-4.14377 -1.80494 1.54669e-19)
(-4.0956 -1.61121 0)
(-3.9702 -1.43172 -5.14775e-19)
(-3.7657 -1.22867 3.90208e-19)
(-3.48438 -1.0296 0)
(-3.10248 -0.787631 1.15848e-19)
(-2.68138 -0.377766 0)
(-2.53615 0.222685 -2.98934e-19)
(-3.3422 -2.77145 -4.3031e-18)
(-3.43567 -2.72265 3.04182e-18)
(-3.53049 -2.63857 2.31976e-18)
(-3.62262 -2.51543 -9.80157e-19)
(-3.70176 -2.35663 0)
(-3.74047 -2.19623 0)
(-3.73515 -2.03932 1.48888e-18)
(-3.67773 -1.89524 -1.60473e-18)
(-3.56691 -1.7835 0)
(-3.32573 -1.6798 6.08756e-19)
(-3.04988 -1.53933 -3.80571e-20)
(-3.19069 -1.02258 -1.10217e-18)
(-3.41633 -2.50468 1.66005e-18)
(-3.48828 -2.41438 -2.84115e-18)
(-3.55833 -2.3199 0)
(-3.61844 -2.22139 -2.977e-18)
(-3.65927 -2.12503 -3.04511e-18)
(-3.67557 -2.03262 6.48179e-18)
(-3.66142 -1.95567 -5.77375e-18)
(-3.61795 -1.90428 0)
(-3.55254 -1.88172 0)
(-3.41674 -1.8737 0)
(-3.19975 -1.86305 -5.35379e-19)
(-3.41296 -1.74322 1.64636e-19)
(-3.29294 -2.48517 -1.3396e-18)
(-3.34794 -2.38969 -3.98103e-19)
(-3.40158 -2.29495 0)
(-3.45064 -2.20178 -3.75953e-19)
(-3.49032 -2.11477 0)
(-3.51626 -2.0397 0)
(-3.52457 -1.98448 1.33315e-18)
(-3.51826 -1.95863 -1.59602e-18)
(-3.49394 -1.9627 1.73063e-18)
(-3.42654 -2.02026 0)
(-3.24913 -2.10411 -5.5128e-19)
(-3.54743 -2.15337 -6.60236e-19)
(-3.1718 -2.42715 7.30874e-18)
(-3.22794 -2.32136 -1.80966e-18)
(-3.28297 -2.22173 3.2436e-18)
(-3.33444 -2.12966 1.45556e-18)
(-3.37972 -2.04891 -4.91503e-18)
(-3.41729 -1.98431 0)
(-3.44563 -1.94445 -1.65779e-18)
(-3.46411 -1.93607 0)
(-3.47935 -1.96846 0)
(-3.47615 -2.05732 1.23376e-18)
(-3.36105 -2.20081 3.14893e-20)
(-3.77423 -2.3999 7.4114e-19)
(-3.06094 -2.3798 -3.47601e-18)
(-3.11926 -2.2668 -2.63558e-19)
(-3.17669 -2.163 0)
(-3.23225 -2.06957 0)
(-3.28504 -1.98949 -5.37148e-18)
(-3.33482 -1.92716 3.36695e-18)
(-3.38248 -1.8888 3.42488e-18)
(-3.43003 -1.88155 1.78206e-18)
(-3.47954 -1.91631 -4.22253e-18)
(-3.53341 -2.01023 -1.0898e-18)
(-3.47924 -2.19989 0)
(-3.9386 -2.52099 8.45512e-19)
(-2.95602 -2.34081 -8.23902e-18)
(-3.01793 -2.2188 3.3814e-18)
(-3.07893 -2.10787 3.73407e-18)
(-3.13932 -2.00884 2.04355e-19)
(-3.19965 -1.924 -4.18266e-19)
(-3.26123 -1.85695 -3.74576e-18)
(-3.32647 -1.81285 -5.43218e-18)
(-3.39895 -1.7985 -1.94803e-18)
(-3.48219 -1.82494 1.85711e-18)
(-3.58255 -1.91182 0)
(-3.60346 -2.10085 2.1208e-18)
(-4.09855 -2.50848 -5.40198e-19)
(-2.85334 -2.30587 8.40301e-18)
(-2.91827 -2.17388 -4.56758e-18)
(-2.98208 -2.05416 -4.23603e-18)
(-3.04608 -1.94704 -7.70339e-18)
(-3.11201 -1.85401 7.53638e-18)
(-3.18243 -1.77761 -1.94797e-19)
(-3.26134 -1.72158 1.1251e-17)
(-3.35445 -1.69179 1.78598e-18)
(-3.46761 -1.69852 2.13258e-18)
(-3.61294 -1.7628 0)
(-3.71064 -1.93736 -1.45272e-18)
(-4.20411 -2.3908 -6.93679e-19)
(-2.74436 -2.26781 0)
(-2.81194 -2.12648 4.338e-18)
(-2.87766 -1.99796 4.22296e-18)
(-2.94363 -1.88189 -4.30644e-18)
(-3.01245 -1.77895 -1.64664e-19)
(-3.0877 -1.69054 -4.27035e-18)
(-3.17486 -1.61857 -3.83131e-18)
(-3.28205 -1.56714 0)
(-3.41838 -1.54424 -1.94441e-18)
(-3.60308 -1.57031 -1.20702e-18)
(-3.78071 -1.70887 4.66062e-18)
(-4.26225 -2.13267 -9.97135e-19)
(-2.61954 -2.21538 0)
(-2.69043 -2.0685 0)
(-2.75782 -1.93389 0)
(-2.82426 -1.81056 -1.42956e-17)
(-2.89286 -1.69835 9.07269e-18)
(-2.96819 -1.5976 8.72051e-18)
(-3.05699 -1.50804 0)
(-3.16926 -1.43122 -4.35724e-18)
(-3.31802 -1.37096 0)
(-3.53265 -1.34437 -2.48261e-18)
(-3.77229 -1.4081 -7.9496e-19)
(-4.24869 -1.72298 -1.27088e-18)
(-2.47237 -2.13627 0)
(-2.54778 -1.99119 0)
(-2.61692 -1.85618 1.05526e-17)
(-2.6825 -1.72978 1.47324e-17)
(-2.74777 -1.61147 4.07552e-19)
(-2.81776 -1.5007 4.8811e-18)
(-2.90067 -1.39492 -2.32617e-18)
(-3.00686 -1.2924 6.5361e-18)
(-3.1533 -1.19079 4.48809e-18)
(-3.3777 -1.10156 2.25636e-18)
(-3.65018 -1.03636 -1.82992e-18)
(-4.11863 -1.02666 -1.9538e-18)
(-2.30373 -2.02282 0)
(-2.38377 -1.88861 0)
(-2.45357 -1.76066 -9.97923e-18)
(-2.51566 -1.63712 5.24928e-18)
(-2.5739 -1.51767 -4.69465e-18)
(-2.63307 -1.40142 -4.74586e-18)
(-2.70254 -1.28421 4.93099e-18)
(-2.79074 -1.16109 0)
(-2.91681 -1.02224 -4.38886e-18)
(-3.10849 -0.869003 -2.33698e-18)
(-3.39005 -0.645711 2.26288e-18)
(-3.71836 0.0321087 -4.61865e-18)
(-2.21709 0.292018 1.16729e-19)
(-1.93363 0.31241 0)
(-1.76615 0.395509 0)
(-1.65434 0.505309 5.66759e-19)
(-1.58313 0.621935 -6.03374e-19)
(-1.53049 0.749571 0)
(-1.62105 0.870307 0)
(-1.71838 1.19705 5.07132e-19)
(-1.42778 2.07315 1.20785e-18)
(-1.64423 2.89032 1.18146e-18)
(-2.04162 3.12931 -7.38956e-20)
(-2.15521 3.40674 7.23611e-19)
(-2.74211 -0.375125 -6.21308e-19)
(-2.37793 -0.218322 0)
(-2.33667 0.0366771 0)
(-2.33731 0.310052 -9.09718e-19)
(-2.40058 0.617163 2.31553e-18)
(-2.39233 1.08017 -2.56427e-18)
(-2.45837 1.92641 9.12653e-19)
(-2.7348 2.64561 8.54203e-19)
(-2.73136 2.98774 -2.76003e-19)
(-2.79389 3.12727 8.26406e-19)
(-2.81064 3.15101 0)
(-2.79596 3.24486 -1.79584e-18)
(-2.99323 -0.348768 3.51711e-19)
(-2.7003 -0.109591 0)
(-2.73062 0.307109 0)
(-2.75417 0.79836 -9.33734e-19)
(-2.83826 1.45312 7.10326e-19)
(-2.98482 2.18164 -1.60433e-18)
(-3.00932 2.68404 0)
(-2.99325 2.98412 -3.20782e-18)
(-2.86532 3.14419 3.90975e-18)
(-2.76291 3.22976 -1.00427e-18)
(-2.67684 3.27782 -2.65158e-18)
(-2.59116 3.34902 3.82708e-18)
(-3.31995 -0.30971 -8.45775e-19)
(-3.11819 0.0812169 1.25566e-18)
(-3.21599 0.65103 0)
(-3.2831 1.30633 9.59513e-19)
(-3.34522 1.96078 -6.50945e-19)
(-3.32362 2.47965 1.19855e-18)
(-3.20357 2.78607 0)
(-3.07298 2.96069 -2.41649e-18)
(-2.91417 3.07522 -5.389e-18)
(-2.79185 3.13873 3.60669e-18)
(-2.68498 3.18459 3.53571e-18)
(-2.58307 3.23974 -6.89221e-18)
(-3.53623 -0.0937874 9.84812e-19)
(-3.49122 0.352042 -1.24074e-18)
(-3.6003 0.956511 2.87806e-18)
(-3.63637 1.59406 0)
(-3.58969 2.14295 -5.7622e-18)
(-3.45318 2.50631 5.40252e-18)
(-3.27981 2.71973 3.21845e-18)
(-3.10864 2.85543 2.39531e-18)
(-2.94031 2.94387 0)
(-2.79169 3.00677 0)
(-2.66068 3.06052 0)
(-2.5398 3.11649 -7.39756e-19)
(-3.73046 0.1166 5.25037e-18)
(-3.78354 0.599665 0)
(-3.86873 1.16489 -2.2394e-18)
(-3.83982 1.71641 4.65863e-18)
(-3.71076 2.14449 3.57644e-18)
(-3.52507 2.4208 -7.38285e-18)
(-3.32453 2.59788 3.46638e-18)
(-3.1306 2.72013 -1.21019e-17)
(-2.9475 2.81022 -1.85512e-19)
(-2.78291 2.8807 -4.42822e-19)
(-2.63613 2.94245 2.85521e-19)
(-2.50245 3.0024 1.17527e-17)
(-3.89565 0.331744 -6.80472e-18)
(-4.04089 0.798238 4.17674e-18)
(-4.07288 1.28682 -6.38221e-18)
(-3.98624 1.73097 -4.51967e-18)
(-3.80854 2.06718 -8.2802e-18)
(-3.59269 2.29794 -4.41512e-18)
(-3.37075 2.46022 -6.5284e-18)
(-3.15851 2.58168 1.08563e-17)
(-2.96109 2.67748 0)
(-2.78197 2.75678 9.49126e-18)
(-2.62068 2.82694 -1.33239e-17)
(-2.47429 2.89283 4.46121e-18)
(-4.08025 0.535774 -3.15009e-18)
(-4.29057 0.940275 -5.3418e-18)
(-4.25343 1.33217 7.51075e-18)
(-4.12228 1.67995 0)
(-3.91026 1.95408 -4.18194e-18)
(-3.669 2.16048 6.35112e-18)
(-3.42637 2.3185 -3.21211e-19)
(-3.19553 2.44435 1.27246e-19)
(-2.98151 2.54816 -5.24328e-18)
(-2.78655 2.63641 -9.89962e-18)
(-2.61036 2.71439 4.43738e-18)
(-2.4508 2.78601 -4.4969e-18)
(-4.25088 0.700879 2.1341e-18)
(-4.52496 1.02876 0)
(-4.41051 1.3168 0)
(-4.23611 1.58522 0)
(-3.99493 1.8154 3.39675e-18)
(-3.73143 2.00701 0)
(-3.46999 2.16567 -4.1192e-19)
(-3.22218 2.29869 1.15864e-17)
(-2.99273 2.41186 2.82424e-19)
(-2.7835 2.50952 4.98e-18)
(-2.59422 2.59544 -5.02675e-18)
(-2.42299 2.67298 1.48646e-17)
(-4.50932 0.831645 7.20008e-20)
(-4.71947 1.0237 7.35407e-18)
(-4.49932 1.21255 -2.25116e-18)
(-4.26529 1.43006 0)
(-3.99741 1.63356 0)
(-3.71942 1.81842 0)
(-3.4495 1.98252 0)
(-3.19566 2.12633 6.04206e-18)
(-2.96102 2.25188 -2.32121e-17)
(-2.74663 2.36146 -1.1474e-17)
(-2.55212 2.45746 1.10729e-17)
(-2.37567 2.54282 5.92655e-18)
(-4.56431 0.981569 -6.46313e-18)
(-4.68591 0.933542 -4.30091e-18)
(-4.37619 1.01625 -2.5666e-18)
(-4.08473 1.19676 0)
(-3.81494 1.38856 0)
(-3.55168 1.57776 7.18354e-18)
(-3.30135 1.75474 -1.32828e-17)
(-3.06672 1.91506 2.52794e-17)
(-2.84832 2.05741 1.79118e-17)
(-2.64674 2.18273 1.12318e-17)
(-2.4618 2.29208 -1.09382e-17)
(-2.29206 2.38822 6.34514e-19)
(-4.17952 0.400266 -1.83974e-18)
(-4.10138 0.559527 0)
(-3.80061 0.684881 3.82539e-18)