/*--------------------------------*- C++ -*----------------------------------*\
| =========                 |                                                 |
| \\      /  F ield         | OpenFOAM: The Open Source CFD Toolbox           |
|  \\    /   O peration     | Version:  v1912                                 |
|   \\  /    A nd           | Website:  www.openfoam.com                      |
|    \\/     M anipulation  |                                                 |
\*---------------------------------------------------------------------------*/
FoamFile
{
    version     2.0;
    format      ascii;
    class       volScalarField;
    location    "300";
    object      epsilon;
}
// * * * * * * * * * * * * * * * * * * * * * * * * * * * * * * * * * * * * * //

dimensions      [0 2 -3 0 0 0 0];


internalField   nonuniform List<scalar> 
3072
(
4.45184
3.56674
4.3508
4.21489
3.54007
3.60396
5.72747
26.5267
52.2058
64.8643
72.4358
77.65
10.7998
8.99198
8.29899
7.92211
13.5498
26.9573
30.6925
38.4958
46.2066
48.4858
49.5425
50.1589
14.9656
12.979
18.9095
22.8244
23.3812
26.7259
30.8478
36.1614
38.7817
40.3771
41.505
42.1364
20.6613
17.1231
20.5553
21.689
23.1643
26.8217
30.8072
34.0214
35.7364
37.1068
38.1599
38.759
22.8059
18.9029
20.89
21.6854
23.6916
27.2533
30.575
32.9665
34.4815
35.6606
36.5944
37.1693
23.3596
18.5576
20.2422
21.5575
24.1036
27.4546
30.417
32.4392
33.7974
34.8377
35.6608
36.2507
21.6294
16.8962
18.6603
21.2843
24.5534
27.9212
30.6762
32.6013
33.9043
34.8712
35.6174
36.1789
20.1708
15.0447
17.9098
21.9303
26.1
29.6726
32.3179
34.1042
35.275
36.0913
36.7023
37.1697
19.585
15.013
19.8613
25.9963
31.5295
35.4407
37.8489
39.1694
39.8085
40.084
40.1786
40.2029
20.4352
18.1405
29.8453
40.1173
46.9065
50.3771
51.4677
51.1333
50.0911
48.7906
47.483
46.285
24.448
35.3061
60.3561
75.204
80.1695
79.7368
76.3141
71.7992
67.1183
62.7142
58.8101
55.4518
115.964
112.778
124.582
126.952
122.799
113.793
104.022
94.5587
85.866
78.0898
71.3421
65.5694
80.2482
81.0437
80.3201
78.559
75.5338
70.5751
63.9735
55.534
45.2948
34.1405
22.7175
30.0091
50.3659
50.1965
49.6906
49.1986
49.1115
49.8952
52.2301
56.5695
62.2472
68.2695
73.6065
92.0861
42.4243
42.313
41.8935
41.6021
41.7625
43.0176
45.8856
51.0813
59.7144
73.2067
94.6266
140.862
39.036
39.0644
38.9134
38.8372
39.1396
40.3988
43.2433
48.6173
58.0158
74.486
105.95
177.244
37.4408
37.5031
37.4283
37.401
37.7285
38.8935
41.5427
46.7111
56.2122
74.0097
111.785
204.005
36.6055
36.7588
36.7929
36.8754
37.277
38.422
40.961
45.9093
55.254
73.4219
115.163
228.456
36.5676
36.8025
36.9446
37.1346
37.5881
38.6787
41.0373
45.7461
54.7632
72.6713
116.414
249.382
37.5149
37.7645
37.9683
38.2191
38.6829
39.6847
41.818
46.1603
54.8111
72.4521
116.767
275.006
40.1903
40.1674
40.1748
40.2803
40.6102
41.4195
43.244
47.1403
55.2859
72.5348
117.592
304.382
45.2422
44.3813
43.7208
43.3387
43.3713
43.8773
45.2681
48.5838
56.066
72.6843
118.31
334.95
52.6421
50.366
48.5897
47.3237
46.6717
46.822
47.7208
50.3277
56.7789
72.622
119.32
372.549
60.7402
56.8373
53.7808
51.5373
50.0759
49.6099
50.126
51.941
56.9863
71.1018
117.714
433.927
4.43072
3.55019
4.3407
4.20753
3.53625
3.59664
5.69142
26.3436
52.0611
64.7454
72.3103
77.5343
10.7934
8.99289
8.29231
7.90753
13.4787
26.8975
30.6576
38.3981
46.1343
48.419
49.4751
50.095
14.9353
12.9446
18.8668
22.8066
23.3606
26.6729
30.7877
36.0971
38.7246
40.3162
41.4465
42.0816
20.6265
17.0935
20.5303
21.6843
23.1266
26.7685
30.7533
33.9692
35.6852
37.0533
38.1081
38.7094
22.7693
18.8768
20.8635
21.6457
23.6517
27.2055
30.5304
32.922
34.4364
35.6138
36.5472
37.1231
23.3299
18.5359
20.2179
21.5256
24.0675
27.4139
30.3804
32.4017
33.7587
34.7965
35.6182
36.2074
21.6084
16.8793
18.6402
21.2594
24.523
27.8887
30.6437
32.568
33.8694
34.8342
35.5795
36.1399
20.1575
15.0329
17.8951
21.9107
26.0785
29.6497
32.2932
34.0779
35.2464
36.0601
36.6689
37.1348
19.5787
15.0069
19.8527
25.9879
31.5216
35.4315
37.8367
39.1538
39.7896
40.0607
40.1523
40.1745
20.4335
18.1403
29.8509
40.1287
46.9198
50.3892
51.4748
51.1343
50.0861
48.7795
47.4671
46.2652
24.4502
35.3153
60.3802
75.239
80.2061
79.7696
76.3397
71.8167
67.1276
62.7158
58.8051
55.4415
115.973
112.789
124.599
126.977
122.83
113.824
104.049
94.5809
85.8817
78.0988
71.3447
65.5666
80.1373
80.9413
80.2153
78.4749
75.4597
70.5138
63.9236
55.497
45.2685
34.1243
22.7078
29.9931
50.3048
50.1427
49.6397
49.1557
49.0719
49.8622
52.1996
56.5397
62.2174
68.2402
73.5763
92.0455
42.3721
42.2668
41.8518
41.5654
41.729
42.9878
45.8582
51.055
59.6878
73.1773
94.5904
140.807
38.9882
39.0196
38.873
38.7999
39.1063
40.3687
43.2156
48.591
57.9894
74.4568
105.912
177.173
37.3956
37.46
37.3885
37.3638
37.6947
38.8626
41.5142
46.6841
56.1856
73.9806
111.747
203.926
36.5627
36.7177
36.7541
36.839
37.2433
38.391
40.9321
45.882
55.2269
73.3935
115.124
228.371
36.5284
36.764
36.9077
37.0996
37.5554
38.6482
41.0088
45.7189
54.7366
72.6424
116.378
249.293
37.4795
37.7294
37.9342
38.1866
38.6522
39.6559
41.7908
46.1343
54.785
72.4246
116.73
274.912
40.1607
40.1374
40.1452
40.2517
40.5829
41.3936
43.2194
47.1165
55.262
72.5089
117.556
304.288
45.2199
44.3576
43.6968
43.3153
43.3488
43.8557
45.2474
48.5636
56.0455
72.6608
118.277
334.854
52.628
50.3496
48.5721
47.306
46.6545
46.8056
47.7049
50.3119
56.7625
72.6034
119.291
372.46
60.7332
56.8276
53.7694
51.5253
50.064
49.5988
50.1154
51.9307
56.9751
71.088
117.693
433.84
4.42908
3.54845
4.33399
4.19912
3.52812
3.59433
5.72436
26.5486
52.2188
64.874
72.4495
77.6632
10.7927
8.9871
8.28685
7.90566
13.5317
26.9475
30.6876
38.5045
46.2117
48.4915
49.5491
50.1653
14.9509
12.9689
18.8976
22.8105
23.3704
26.7259
30.8521
36.1668
38.7867
40.3835
41.5119
42.1434
20.6568
17.1178
20.547
21.6807
23.1612
26.8251
30.8114
34.0257
35.7415
37.113
38.1669
38.7666
22.8103
18.9004
20.8841
21.6808
23.6919
27.2579
30.5784
32.9702
34.486
35.6663
36.601
37.1769
23.3678
18.5571
20.2384
21.5556
24.1057
27.4585
30.4201
32.4425
33.8015
34.8429
35.6671
36.2579
21.6387
16.8981
18.6601
21.2859
24.5563
27.9249
30.6795
32.6047
33.9084
34.8763
35.6235
36.1858
20.1796
15.0477
17.9124
21.9332
26.1039
29.6766
32.3217
34.1081
35.2792
36.0961
36.708
37.1761
19.5925
15.0163
19.865
26.0005
31.5339
35.4448
37.8529
39.1732
39.8122
40.0879
40.1829
40.2077
20.4416
18.1444
29.85
40.1218
46.9101
50.3802
51.4702
51.1353
50.0925
48.7918
47.4842
46.2866
24.4539
35.3117
60.361
75.2065
80.169
79.7351
76.3118
71.7964
67.115
62.7105
58.8064
55.4485
115.97
112.778
124.578
126.945
122.788
113.783
104.012
94.5493
85.8567
78.0805
71.3331
65.561
80.2631
81.0563
80.3322
78.5696
75.5435
70.5822
63.9806
55.5383
45.2998
34.1413
22.7168
30.0053
50.3722
50.2012
49.695
49.202
49.1148
49.8974
52.2317
56.5711
62.2486
68.2717
73.6053
92.0822
42.4313
42.3198
41.9005
41.6091
41.7697
43.0249
45.8933
51.0893
59.7228
73.2156
94.6346
140.869
39.0439
39.0725
38.9219
38.846
39.1489
40.4087
43.2538
48.6285
58.0277
74.4985
105.966
177.264
37.449
37.5118
37.4378
37.411
37.7391
38.9049
41.555
46.7245
56.2272
74.0269
111.806
204.037
36.6136
36.7678
36.8026
36.8858
37.2881
38.434
40.9739
45.9237
55.2704
73.4413
115.187
228.5
36.5754
36.8113
36.9541
37.1449
37.5991
38.6906
41.0504
45.7608
54.7802
72.6923
116.442
249.438
37.5221
37.7724
37.9769
38.2285
38.6932
39.6959
41.8305
46.1748
54.8283
72.474
116.797
275.075
40.1958
40.1737
40.1819
40.2882
40.6189
41.4294
43.2553
47.1538
55.3026
72.5568
117.624
304.465
45.2444
44.3843
43.7249
43.3442
43.378
43.8851
45.2775
48.5957
56.0815
72.7056
118.343
335.047
52.6396
50.3647
48.5898
47.3255
46.6755
46.8275
47.7277
50.3373
56.7925
72.6417
119.354
372.663
60.7329
56.8316
53.7769
51.5355
50.0762
49.613
50.1303
51.9477
56.997
71.1184
117.744
434.068
4.43119
3.55062
4.34137
4.20828
3.53705
3.59771
5.6948
26.3641
52.0848
64.7691
72.3353
77.5594
10.7948
8.99514
8.29389
7.90996
13.4856
26.9107
30.6702
38.4147
46.1504
48.4343
49.4903
50.1097
14.9368
12.9467
18.8724
22.8181
23.3732
26.6834
30.7986
36.1087
38.7355
40.327
41.4567
42.0912
20.6268
17.0982
20.5394
21.6945
23.1352
26.7767
30.7616
33.9772
35.6928
37.0609
38.1153
38.7162
22.7682
18.8822
20.872
21.6547
23.6578
27.2109
30.5359
32.9278
34.442
35.6194
36.5526
37.1282
23.3288
18.5409
20.2257
21.5317
24.0722
27.4182
30.3844
32.4056
33.7624
34.8001
35.6218
36.2109
21.6068
16.8833
18.6463
21.2639
24.5266
27.8917
30.6466
32.5705
33.8716
34.8363
35.5811
36.1415
20.1546
15.035
17.8985
21.9138
26.0804
29.6506
32.2935
34.0776
35.2458
36.0594
36.6683
37.1344
19.5763
15.0078
19.8546
25.9889
31.5209
35.4289
37.8328
39.1491
39.7847
40.0561
40.1484
40.1711
20.4323
18.1413
29.8521
40.1281
46.9161
50.3821
51.4655
51.1241
50.0761
48.7704
47.4593
46.2588
24.4516
35.3191
60.383
75.2374
80.1993
79.7597
76.3269
71.8028
67.114
62.7034
58.7946
55.4329
115.989
112.798
124.605
126.978
122.825
113.816
104.037
94.5676
85.8681
78.086
71.3336
65.5575
80.1628
80.9666
80.2406
78.4993
75.4828
70.5352
63.9425
55.513
45.2803
34.134
22.7149
30.0053
50.3192
50.1565
49.6533
49.1689
49.0849
49.8752
52.2131
56.5539
62.2327
68.2559
73.5957
92.0732
42.3815
42.2755
41.86
41.5732
41.7368
42.9955
45.8661
51.0636
59.6977
73.1897
94.6086
140.838
38.9948
39.026
38.8789
38.8055
39.1117
40.374
43.221
48.597
57.9967
74.4671
105.928
177.206
37.4005
37.4646
37.3928
37.3678
37.6984
38.8661
41.5178
46.6882
56.1907
73.988
111.76
203.958
36.5661
36.7208
36.7569
36.8417
37.2459
38.3936
40.9348
45.885
55.2309
73.3995
115.136
228.403
36.5299
36.7656
36.9091
37.1011
37.5569
38.6498
41.0106
45.7212
54.7398
72.6474
116.388
249.324
37.4792
37.7293
37.9342
38.1867
38.6525
39.6565
41.7917
46.1358
54.7876
72.4289
116.739
274.943
40.1579
40.1352
40.1436
40.2505
40.582
41.3932
43.2194
47.1172
55.2638
72.5125
117.564
304.317
45.2148
44.3536
43.6938
43.313
43.3471
43.8543
45.2466
48.5634
56.0463
72.6635
118.284
334.878
52.6212
50.3444
48.5682
47.3031
46.6524
46.8039
47.7036
50.311
56.7622
72.6046
119.296
372.477
60.7261
56.8223
53.7656
51.5226
50.0621
49.5973
50.114
51.9294
56.974
71.0874
117.694
433.846
163.784
157.1
149.361
140.259
131.582
122.351
112.997
103.847
94.9694
86.5295
78.8556
71.9902
99.2873
101.655
103.078
103.087
102.366
100.518
97.8286
94.0617
88.762
82.7274
76.7461
70.8874
68.0967
70.11
71.8242
73.0655
74.0685
74.4948
74.2285
73.2903
71.6142
69.4784
66.7043
63.1198
52.0212
53.0888
53.9269
54.515
54.9929
55.3922
55.4474
55.2718
54.8032
54.0433
52.993
51.7447
66.0461
61.1768
57.3172
54.4226
52.4616
51.4152
51.5651
52.6459
55.879
64.9108
89.495
177.438
65.5149
61.0463
57.4627
54.7565
52.8776
51.6855
51.439
51.8603
53.4903
57.799
68.667
94.3152
59.5177
56.5087
54.0393
52.0936
50.5845
49.4085
48.6935
48.5433
49.2448
50.8989
55.7474
64.841
50.5295
49.2317
47.7732
46.2774
44.8335
43.5444
42.7409
42.4491
43.0693
44.0045
46.5714
50.3153
163.788
157.093
149.354
140.257
131.587
122.361
113.009
103.859
94.9809
86.538
78.8603
71.9911
99.2931
101.654
103.072
103.082
102.363
100.518
97.8304
94.066
88.7691
82.7337
76.7508
70.8897
68.1058
70.1158
71.8274
73.0671
74.0696
74.4967
74.2314
73.2941
71.6187
69.4836
66.7094
63.1239
52.0297
53.0957
53.9319
54.519
54.9963
55.3957
55.4517
55.2766
54.8085
54.0489
52.9986
51.7502
66.0435
61.1718
57.3109
54.4157
52.4549
51.4089
51.559
52.6399
55.8726
64.9034
89.4838
177.414
65.5148
61.0445
57.4601
54.7535
52.8746
51.6827
51.4365
51.8579
53.488
57.796
68.6628
94.3071
59.5203
56.5102
54.0402
52.0942
50.5847
49.4086
48.6937
48.5438
49.2454
50.8997
55.7476
64.8404
50.5347
49.2364
47.7773
46.2808
44.8361
43.5471
42.744
42.4527
43.0735
44.0089
46.576
50.3193
163.768
157.082
149.344
140.243
131.567
122.337
112.984
103.834
94.9574
86.5177
78.8442
71.9793
99.2849
101.65
103.072
103.081
102.359
100.511
97.8216
94.0543
88.7537
82.719
76.7376
70.8785
68.1046
70.1156
71.8286
73.0692
74.0717
74.4971
74.2302
73.2915
71.615
69.4783
66.7027
63.1161
52.0334
53.0993
53.9363
54.5235
55.001
55.3999
55.4543
55.2782
54.8089
54.048
52.9965
51.7475
66.0362
61.1685
57.311
54.4186
52.4598
51.416
51.5672
52.6502
55.8864
64.9231
89.5161
177.495
65.5063
61.0389
57.4568
54.7523
52.875
51.6845
51.44
51.8624
53.4948
57.8075
68.6821
94.3436
59.5136
56.5049
54.036
52.0908
50.5821
49.407
48.6938
48.5454
49.25
50.9075
55.7618
64.8624
50.5312
49.2323
47.773
46.277
44.8333
43.5462
42.7454
42.4567
43.0807
44.0191
46.5902
50.3383
163.83
157.119
149.373
140.271
131.597
122.366
113.01
103.857
94.9748
86.5306
78.8531
71.9848
99.3259
101.687
103.104
103.112
102.39
100.541
97.8499
94.0798
88.7746
82.7364
76.752
70.8899
68.132
70.1447
71.8578
73.0981
74.1007
74.5253
74.2574
73.3173
71.6392
69.5002
66.7221
63.1321
52.0557
53.1236
53.9612
54.5483
55.026
55.4248
55.4782
55.3012
54.8308
54.0686
53.0156
51.7652
66.0388
61.1686
57.3089
54.4147
52.4544
51.4085
51.5583
52.6387
55.8707
64.901
89.4817
177.418
65.5154
61.0459
57.4619
54.7555
52.8763
51.6837
51.4363
51.857
53.4858
57.7921
68.6567
94.2996
59.528
56.5173
54.0463
52.0991
50.5881
49.4104
48.6937
48.5422
49.2415
50.8938
55.7384
64.8286
50.5469
49.2456
47.7838
46.2849
44.8374
43.5464
42.7413
42.4478
43.0657
43.9989
46.5629
50.3027
42.6798
42.8061
42.8604
42.849
42.8516
42.8286
42.6977
42.4948
42.1989
41.8264
41.3764
40.9023
35.3214
35.1965
35.0501
34.898
34.7732
34.639
34.4844
34.3326
34.1676
33.9392
33.5307
32.8446
29.6851
29.6145
29.5122
29.3753
29.2003
28.9784
28.7418
28.5344
28.375
28.2475
28.072
27.6688
25.2821
25.3541
25.3722
25.2856
25.0537
24.6944
24.2666
23.8504
23.5451
23.549
24.2284
25.8441
40.3537
38.5278
36.6491
35.5171
34.8665
34.8769
35.5646
36.7226
38.2682
39.7874
41.5121
42.5725
31.9
29.031
27.0735
26.5034
26.7773
27.8034
29.4003
31.2787
33.0965
34.4722
35.4341
35.7061
27.0827
22.1897
20.2529
20.0656
20.8725
22.3768
24.3191
26.3996
28.116
29.2432
29.9025
29.9934
27.3473
17.6092
15.4691
15.4059
16.4399
18.0663
20.0194
22.0172
23.5736
24.5762
25.1594
25.3274
42.6848
42.8104
42.8644
42.8529
42.856
42.8337
42.7035
42.5012
42.2055
41.8331
41.3834
40.91
35.324
35.1994
35.0533
34.9022
34.7784
34.6451
34.4914
34.3402
34.1757
33.9478
33.5402
32.8553
29.6866
29.6165
29.5152
29.3796
29.2059
28.9853
28.7498
28.5434
28.3862
28.2585
28.0845
27.6835
25.283
25.3554
25.3745
25.2896
25.0593
24.7016
24.2752
23.8618
23.5655
23.5639
24.2443
25.8644
40.3621
38.5351
36.6556
35.5233
34.8727
34.8834
35.5716
36.73
38.2757
39.7948
41.5192
42.5795
31.9121
29.0406
27.0822
26.5119
26.7858
27.8122
29.4094
31.2882
33.1062
34.4818
35.4437
35.7154
27.0995
22.2017
20.2634
20.0756
20.8824
22.3868
24.3294
26.4102
28.127
29.2543
29.9134
30.0042
27.3731
17.6235
15.4806
15.4166
16.4503
18.0769
20.0303
22.0285
23.5851
24.5878
25.1709
25.3386
42.6915
42.817
42.8706
42.8587
42.861
42.8376
42.7061
42.5025
42.2058
41.8323
41.3816
40.9074
35.333
35.2078
35.0609
34.9085
34.7833
34.6487
34.4937
34.3414
34.1759
33.9471
33.539
32.8542
29.6967
29.6257
29.5231
29.3858
29.2105
28.9885
28.7518
28.5444
28.3864
28.2583
28.0846
27.6845
25.2935
25.3649
25.3826
25.2957
25.0637
24.7045
24.277
23.8627
23.5659
23.5645
24.246
25.8683
40.3591
38.5331
36.6555
35.5253
34.8774
34.8899
35.5805
36.7407
38.2885
39.8098
41.5372
42.5991
31.9118
29.0424
27.0865
26.5183
26.7945
27.8226
29.4213
31.3011
33.1205
34.4975
35.4604
35.7326
27.1016
22.2056
20.2695
20.0831
20.8918
22.3976
24.3413
26.4229
28.1402
29.2679
29.9274
30.0179
27.3781
17.6283
15.4865
15.4235
16.4587
18.0864
20.0406
22.0394
23.5961
24.5986
25.1816
25.3488
42.7122
42.838
42.8909
42.8754
42.8795
42.8563
42.7236
42.5189
42.2209
41.8457
41.3926
40.9152
35.3499
35.2243
35.0765
34.9228
34.7971
34.6615
34.505
34.351
34.1834
33.9519
33.5398
32.8505
29.7097
29.638
29.5346
29.3959
29.2194
28.9957
28.757
28.5472
28.385
28.2545
28.0758
27.6701
25.3027
25.3735
25.3904
25.3017
25.0681
24.7069
24.2769
23.8583
23.5501
23.5521
24.2286
25.8425
40.3634
38.5349
36.6536
35.5194
34.867
34.8764
35.5628
36.7193
38.2628
39.7799
41.5019
42.5616
31.9036
29.0334
27.0745
26.5036
26.7768
27.8026
29.3988
31.2763
33.0923
34.4662
35.4268
35.6988
27.0826
22.1895
20.2523
20.065
20.872
22.3764
24.3186
26.3987
28.1139
29.2402
29.8987
29.9902
27.344
17.6076
15.468
15.405
16.4395
18.0665
20.0198
22.0176
23.5734
24.5757
25.1588
25.3276
21.6871
21.9166
22.0467
22.01
21.6967
21.1362
20.3783
19.4882
18.5358
17.6001
17.2127
19.585
18.6409
18.9966
19.2118
19.2043
18.799
18.0055
16.8343
15.2895
13.3011
10.603
6.42371
2.87765
15.9989
16.431
16.7013
16.7065
16.2295
15.2433
13.7279
11.6732
9.04516
5.83825
2.73123
1.82376
13.6647
14.144
14.4474
14.4612
13.9559
12.875
11.1958
8.96255
6.31156
3.62854
1.84284
1.72703
11.6012
12.1071
12.4287
12.4567
11.9736
10.9085
9.25395
7.12659
4.80148
2.78433
1.61219
1.67608
9.80085
10.312
10.6439
10.6944
10.274
9.31168
7.81238
5.94065
4.01673
2.48017
1.573
1.60418
8.26432
8.76337
9.10028
9.17853
8.84264
8.03473
6.75205
5.17701
3.6101
2.38946
1.59502
1.44043
6.99912
7.4751
7.81306
7.91815
7.66998
7.03782
5.9794
4.68182
3.40228
2.38179
1.64353
1.22612
6.03115
6.4816
6.81836
6.94812
6.78096
6.3057
5.45172
4.38582
3.32206
2.42553
1.6849
0.961176
5.44699
5.88482
6.22797
6.38462
6.28415
5.91818
5.22126
4.3231
3.38531
2.5314
1.70402
0.668027
5.64446
6.13299
6.52965
6.73291
6.67295
6.32273
5.6877
4.83747
3.86781
2.84987
1.70779
0.375334
10.4579
11.5
12.418
12.9543
12.8597
12.1837
10.9692
9.20818
6.96184
4.3559
2.03721
0.478585
40.6383
14.1407
11.8642
11.9266
12.995
14.556
16.3615
18.1637
19.5824
20.5461
21.155
21.4852
22.4922
10.2609
9.003
9.25414
10.2648
11.6757
13.2735
14.8512
16.146
17.0937
17.7685
18.2503
15.2116
7.53354
6.82427
7.18082
8.0911
9.32139
10.6997
12.059
13.2288
14.1471
14.8746
15.4766
10.8254
5.62363
5.1958
5.57407
6.36743
7.4147
8.58437
9.74613
10.7832
11.6557
12.4002
13.0668
7.84396
4.25142
3.97929
4.33454
5.01118
5.88811
6.86914
7.85508
8.76438
9.56907
10.2936
10.9747
5.68644
3.23747
3.06343
3.38216
3.95372
4.6808
5.49724
6.32903
7.11795
7.84435
8.52418
9.18081
4.08223
2.47732
2.3674
2.65265
3.13773
3.73913
4.41671
5.11717
5.79753
6.44346
7.06526
7.6762
2.91058
1.89855
1.83323
2.09611
2.51732
3.01858
3.58379
4.1775
4.76602
5.33763
5.89885
6.45709
2.01287
1.42629
1.4185
1.678
2.06034
2.48764
2.96832
3.48305
4.00262
4.51494
5.02402
5.5339
1.30346
1.02862
1.09845
1.39514
1.77107
2.15524
2.58431
3.05437
3.53263
4.01113
4.49236
4.97507
0.760234
0.714345
0.913042
1.30202
1.70808
2.09225
2.53057
3.03326
3.55207
4.07479
4.60199
5.12908
0.571339
0.808427
1.51478
2.20697
2.78259
3.36279
4.15405
5.15384
6.21737
7.28053
8.33644
9.40089
21.6876
21.9173
22.0483
22.0134
21.7018
21.1431
20.3869
19.4991
18.5497
17.6141
17.2277
19.6007
18.6412
18.9967
19.2127
19.2068
18.8033
18.0115
16.842
15.2988
13.3116
10.6128
6.42959
2.87849
15.999
16.4307
16.7017
16.7081
16.2327
15.248
13.7339
11.6802
9.05202
5.84318
2.73256
1.82356
13.6648
14.1436
14.4473
14.4619
13.958
12.8783
11.2001
8.96708
6.31535
3.63044
1.84299
1.72668
11.6016
12.1067
12.4284
12.4568
11.9747
10.9104
9.25653
7.12915
4.80325
2.78488
1.61201
1.67577
9.80155
10.3117
10.6435
10.6941
10.2743
9.31258
7.81366
5.94184
4.01734
2.48012
1.57274
1.60384
8.2654
8.76333
9.09989
9.17801
8.84241
8.03485
6.75242
5.17732
3.61008
2.38915
1.59471
1.44016
7.00054
7.47537
7.81288
7.91758
7.66945
7.03745
5.97919
4.68162
3.40193
2.38138
1.64321
1.22595
6.03289
6.48216
6.81852
6.94767
6.78036
6.30507
5.45117
4.38533
3.32154
2.42509
1.68467
0.961103
5.44894
5.88586
6.22856
6.38444
6.28363
5.91745
5.22055
4.32247
3.38472
2.53097
1.70391
0.668056
5.64682
6.13466
6.53074
6.73304
6.67245
6.32194
5.68685
4.8367
3.86714
2.84948
1.7078
0.375412
10.4627
11.5036
12.42
12.9538
12.8582
12.1817
10.9672
9.20651
6.96069
4.3554
2.03729
0.47873
40.6857
14.1561
11.8759
11.9374
13.0054
14.5666
16.3724
18.175
19.594
20.5577
21.1664
21.4963
22.5263
10.2749
9.01412
9.26443
10.2749
11.6859
13.284
14.8621
16.1572
17.1049
17.7795
18.2608
15.2385
7.54569
6.83446
7.19039
8.10055
9.33097
10.7096
12.0692
13.2393
14.1576
14.8849
15.4865
10.8466
5.63402
5.20485
5.58274
6.37608
7.42351
8.59345
9.75552
10.7928
11.6653
12.4097
13.0759
7.86071
4.2602
3.98717
4.34227
5.01897
5.89606
6.87735
7.86355
8.77305
9.5778
10.3022
10.9831
5.69943
3.24478
3.07019
3.38895
3.96066
4.68791
5.50458
6.33661
7.12571
7.85219
8.53194
9.18842
4.09199
2.48332
2.37314
2.65858
3.14387
3.74545
4.42324
5.12392
5.80447
6.45048
7.07225
7.68309
2.91784
1.90344
1.83805
2.10127
2.52277
3.02422
3.58961
4.18353
4.77224
5.34396
5.90521
6.46342
2.0181
1.43017
1.42253
1.68254
2.06524
2.49274
2.97359
3.48854
4.00832
4.52077
5.02993
5.53985
1.30698
1.03161
1.10184
1.39929
1.7757
2.16008
2.58932
3.05962
3.5381
4.01677
4.49814
4.98104
0.762352
0.716596
0.916142
1.30624
1.71291
2.09732
2.53586
3.0389
3.55807
4.08102
4.60848
5.13589
0.572762
0.811003
1.52017
2.21428
2.79075
3.37127
4.16316
5.16389
6.22834
7.2922
8.34908
9.41395
21.698
21.9266
22.0562
22.0192
21.706
21.1459
20.3887
19.5001
18.5506
17.6156
17.2309
19.6087
18.651
19.0056
19.2203
19.2125
18.8073
18.0143
16.844
15.3002
13.3131
10.615
6.43277
2.88107
16.0081
16.439
16.7089
16.7137
16.2368
15.251
13.7362
11.6822
9.05424
5.84588
2.73486
1.82541
13.6733
14.1512
14.4541
14.4675
13.9622
12.8815
11.2028
8.96959
6.31794
3.63292
1.84466
1.7284
11.6094
12.1139
12.4348
12.4622
11.979
10.9139
9.25954
7.13193
4.80585
2.78697
1.61331
1.67734
9.80871
10.3183
10.6496
10.6994
10.2787
9.31623
7.81684
5.9447
4.01979
2.48188
1.57386
1.60514
8.272
8.76949
9.10566
9.18311
8.84686
8.03862
6.75564
5.18016
3.61235
2.39065
1.59563
1.44121
7.00665
7.48111
7.81834
7.92251
7.67391
7.04128
5.9824
4.6844
3.40404
2.38272
1.64399
1.22668
6.03876
6.48754
6.82381
6.9524
6.78481
6.309
5.45433
4.38811
3.32356
2.42626
1.68529
0.96152
5.45479
5.89124
6.23378
6.3892
6.2882
5.92154
5.22389
4.32529
3.38674
2.53207
1.70435
0.668275
5.65347
6.1408
6.5366
6.73847
6.67771
6.32671
5.69079
4.83992
3.86938
2.85055
1.70814
0.375437
10.475
11.5158
12.4318
12.965
12.8689
12.1912
10.9754
9.21276
6.96465
4.357
2.03763
0.478625
40.6988
14.1606
11.8807
11.9429
13.0121
14.5741
16.3806
18.1836
19.6024
20.5658
21.1741
21.5032
22.5339
10.2781
9.01736
9.26827
10.2796
11.6914
13.29
14.8684
16.1632
17.1106
17.7846
18.265
15.2428
7.54753
6.83626
7.19264
8.10343
9.33443
10.7135
12.0734
13.2433
14.1613
14.888
15.4888
10.8489
5.63484
5.20552
5.58368
6.37745
7.42531
8.59557
9.7578
10.795
11.6673
12.4111
13.0768
7.86171
4.26033
3.98705
4.34221
5.01918
5.89655
6.87806
7.86438
8.77382
9.57839
10.3024
10.9828
5.69962
3.24453
3.06956
3.38821
3.96002
4.68743
5.50423
6.33633
7.12539
7.85171
8.53119
9.18724
4.09192
2.48295
2.37223
2.65738
3.14267
3.7443
4.42213
5.12284
5.80333
6.44922
7.07077
7.68126
2.91762
1.90302
1.83703
2.0998
2.52121
3.02263
3.588
4.18189
4.77053
5.34214
5.90319
6.46108
2.01784
1.42974
1.42146
1.68091
2.06347
2.49089
2.97165
3.48651
4.0062
4.51854
5.02753
5.53714
1.30675
1.03114
1.10075
1.39751
1.77375
2.15806
2.58713
3.05727
3.53564
4.01419
4.49538
4.97791
0.762214
0.716085
0.91485
1.30422
1.71075
2.0951
2.53336
3.03612
3.55507
4.07793
4.60514
5.13209
0.572789
0.810281
1.51745
2.2111
2.78755
3.36795
4.15901
5.15908
6.22304
7.28679
8.34287
9.40715
21.704
21.9319
22.0606
22.0218
21.7068
21.1444
20.3846
19.4925
18.5381
17.6009
17.2126
19.5856
18.6545
19.0082
19.2222
19.2127
18.8055
18.0104
16.8377
15.2915
13.3023
10.604
6.42512
2.87831
16.0095
16.4398
16.7093
16.713
16.2333
15.2457
13.7291
11.6739
9.04586
5.83937
2.73201
1.82399
13.6733
14.1504
14.4525
14.4648
13.9577
12.8757
11.1958
8.96249
6.31189
3.62918
1.84302
1.7271
11.6083
12.112
12.4322
12.4586
11.9741
10.9081
9.25321
7.12605
4.80142
2.78447
1.61208
1.67611
9.8069
10.3158
10.6464
10.6953
10.2737
9.31067
7.8112
5.9398
4.01633
2.47994
1.57277
1.60402
8.26965
8.76658
9.10214
9.17894
8.84196
8.03345
6.75063
5.17596
3.60945
2.38899
1.59463
1.44023
7.00394
7.478
7.8147
7.91832
7.66922
7.03648
5.97789
4.68066
3.40146
2.38118
1.64302
1.2259
6.0357
6.48439
6.82007
6.94834
6.78035
6.30444
5.45023
4.38463
3.32114
2.42481
1.68431
0.960976
5.45145
5.88792
6.23003
6.38518
6.28383
5.91708
5.21994
4.32194
3.38432
2.53056
1.70339
0.66789
5.64956
6.13702
6.53249
6.73407
6.67289
6.32187
5.68649
4.83632
3.86664
2.84884
1.70714
0.375257
10.4686
11.5089
12.4243
12.9563
12.8595
12.182
10.9668
9.20566
6.95944
4.35408
2.03642
0.478409
40.6299
14.1385
11.863
11.9258
12.9947
14.5563
16.3623
18.1648
19.5835
20.5473
21.1565
21.4875
22.4859
10.2589
9.00173
9.2533
10.2645
11.6761
13.2744
14.8525
16.1476
17.0957
17.7713
18.2531
15.2068
7.53178
6.82307
7.17999
8.09071
9.32155
10.7004
12.0601
13.2303
14.1491
14.8774
15.4793
10.8216
5.62215
5.19473
5.57326
6.36693
7.41463
8.58473
9.74684
10.7842
11.6571
12.4023
13.069
7.84117
4.25021
3.97837
4.33379
5.01061
5.88781
6.86915
7.85533
8.76482
9.56972
10.2947
10.9762
5.68444
3.23648
3.06267
3.38148
3.95312
4.68034
5.49695
6.32887
7.11785
7.8443
8.52432
9.18132
4.08078
2.47652
2.3668
2.65207
3.13714
3.73856
4.4162
5.11669
5.79701
6.44283
7.06463
7.67577
2.90958
1.89793
1.83278
2.09565
2.51677
3.01796
3.58314
4.1768
4.7652
5.33659
5.89763
6.45591
2.01223
1.42584
1.41818
1.67767
2.05984
2.48701
2.96759
3.48223
4.00161
4.51364
5.0224
5.53216
1.30311
1.02836
1.09828
1.39491
1.77061
2.15458
2.58352
3.05344
3.53148
4.00964
4.49047
4.97294
0.760071
0.714246
0.913003
1.30186
1.70762
2.09154
2.5297
3.03224
3.55077
4.07307
4.59972
5.12637
0.571193
0.808407
1.51482
2.20655
2.7817
3.36164
4.15285
5.15233
6.21503
7.27702
8.33126
9.39368
)
;

boundaryField
{
    rotor
    {
        lowReCorrection 0;
        type            epsilonWallFunction;
        value           nonuniform List<scalar> 
192
(
4.45184
3.56674
4.3508
4.21489
3.54007
3.60396
5.72747
26.5267
52.2058
64.8643
72.4358
77.65
80.2482
81.0437
80.3201
78.559
75.5338
70.5751
63.9735
55.534
45.2948
34.1405
22.7175
30.0091
4.43072
3.55019
4.3407
4.20753
3.53625
3.59664
5.69142
26.3436
52.0611
64.7454
72.3103
77.5343
80.1373
80.9413
80.2153
78.4749
75.4597
70.5138
63.9236
55.497
45.2685
34.1243
22.7078
29.9931
4.42908
3.54845
4.33399
4.19912
3.52812
3.59433
5.72436
26.5486
52.2188
64.874
72.4495
77.6632
80.2631
81.0563
80.3322
78.5696
75.5435
70.5822
63.9806
55.5383
45.2998
34.1413
22.7168
30.0053
4.43119
3.55062
4.34137
4.20828
3.53705
3.59771
5.6948
26.3641
52.0848
64.7691
72.3353
77.5594
80.1628
80.9666
80.2406
78.4993
75.4828
70.5352
63.9425
55.513
45.2803
34.134
22.7149
30.0053
4.45184
10.7998
14.9656
20.6613
22.8059
23.3596
21.6294
20.1708
19.585
20.4352
24.448
115.964
30.0053
92.0732
140.838
177.206
203.958
228.403
249.324
274.943
304.317
334.878
372.477
433.846
4.43072
10.7934
14.9353
20.6265
22.7693
23.3299
21.6084
20.1575
19.5787
20.4335
24.4502
115.973
30.0091
92.0861
140.862
177.244
204.005
228.456
249.382
275.006
304.382
334.95
372.549
433.927
4.42908
10.7927
14.9509
20.6568
22.8103
23.3678
21.6387
20.1796
19.5925
20.4416
24.4539
115.97
29.9931
92.0455
140.807
177.173
203.926
228.371
249.293
274.912
304.288
334.854
372.46
433.84
4.43119
10.7948
14.9368
20.6268
22.7682
23.3288
21.6068
20.1546
19.5763
20.4323
24.4516
115.989
30.0053
92.0822
140.869
177.264
204.037
228.5
249.438
275.075
304.465
335.047
372.663
434.068
)
;
    }
    stator
    {
        lowReCorrection 0;
        type            epsilonWallFunction;
        value           nonuniform List<scalar> 
192
(
10.4579
11.5
12.418
12.9543
12.8597
12.1837
10.9692
9.20818
6.96184
4.3559
2.03721
0.478585
0.571339
0.808427
1.51478
2.20697
2.78259
3.36279
4.15405
5.15384
6.21737
7.28053
8.33644
9.40089
10.4627
11.5036
12.42
12.9538
12.8582
12.1817
10.9672
9.20651
6.96069
4.3554
2.03729
0.47873
0.572762
0.811003
1.52017
2.21428
2.79075
3.37127
4.16316
5.16389
6.22834
7.2922
8.34908
9.41395
10.475
11.5158
12.4318
12.965
12.8689
12.1912
10.9754
9.21276
6.96465
4.357
2.03763
0.478625
0.572789
0.810281
1.51745
2.2111
2.78755
3.36795
4.15901
5.15908
6.22304
7.28679
8.34287
9.40715
10.4686
11.5089
12.4243
12.9563
12.8595
12.182
10.9668
9.20566
6.95944
4.35408
2.03642
0.478409
0.571193
0.808407
1.51482
2.20655
2.7817
3.36164
4.15285
5.15233
6.21503
7.27702
8.33126
9.39368
40.6383
22.4922
15.2116
10.8254
7.84396
5.68644
4.08223
2.91058
2.01287
1.30346
0.760234
0.571339
19.585
2.87765
1.82376
1.72703
1.67608
1.60418
1.44043
1.22612
0.961176
0.668027
0.375334
0.478585
40.6857
22.5263
15.2385
10.8466
7.86071
5.69943
4.09199
2.91784
2.0181
1.30698
0.762352
0.572762
19.6007
2.87849
1.82356
1.72668
1.67577
1.60384
1.44016
1.22595
0.961103
0.668056
0.375412
0.47873
40.6988
22.5339
15.2428
10.8489
7.86171
5.69962
4.09192
2.91762
2.01784
1.30675
0.762214
0.572789
19.6087
2.88107
1.82541
1.7284
1.67734
1.60514
1.44121
1.22668
0.96152
0.668275
0.375437
0.478625
40.6299
22.4859
15.2068
10.8216
7.84117
5.68444
4.08078
2.90958
2.01223
1.30311
0.760071
0.571193
19.5856
2.87831
1.82399
1.7271
1.67611
1.60402
1.44023
1.2259
0.960976
0.66789
0.375257
0.478409
)
;
    }
    front
    {
        type            empty;
    }
    back
    {
        type            empty;
    }
}


// ************************************************************************* //
