/*--------------------------------*- C++ -*----------------------------------*\
| =========                 |                                                 |
| \\      /  F ield         | OpenFOAM: The Open Source CFD Toolbox           |
|  \\    /   O peration     | Version:  v1912                                 |
|   \\  /    A nd           | Website:  www.openfoam.com                      |
|    \\/     M anipulation  |                                                 |
\*---------------------------------------------------------------------------*/
FoamFile
{
    version     2.0;
    format      ascii;
    class       volScalarField;
    location    "300";
    object      k;
}
// * * * * * * * * * * * * * * * * * * * * * * * * * * * * * * * * * * * * * //

dimensions      [0 2 -2 0 0 0 0];


internalField   nonuniform List<scalar> 
3072
(
0.0390295
0.0503889
0.0575724
0.0563968
0.05021
0.0506846
0.0683359
0.18935
0.300118
0.347617
0.37428
0.392258
0.0758021
0.129947
0.133384
0.115154
0.112638
0.200712
0.23771
0.315696
0.413688
0.495056
0.578623
0.654217
0.100575
0.195687
0.244658
0.250867
0.241654
0.298533
0.384864
0.495581
0.603151
0.699352
0.783749
0.850944
0.13253
0.257206
0.285545
0.28709
0.326942
0.419515
0.528871
0.6382
0.737372
0.824157
0.897421
0.954532
0.14965
0.302235
0.340797
0.357456
0.423299
0.525037
0.634273
0.736783
0.826381
0.903697
0.968761
1.02011
0.160176
0.326259
0.378175
0.419941
0.499716
0.602689
0.706964
0.800938
0.882156
0.952124
1.01137
1.05933
0.159658
0.329548
0.397402
0.466207
0.560117
0.663705
0.762279
0.849036
0.923366
0.987089
1.04129
1.08606
0.159463
0.331451
0.421798
0.519816
0.631313
0.736737
0.829054
0.906952
0.9722
1.02738
1.07423
1.11341
0.163129
0.347107
0.484916
0.625361
0.754823
0.859185
0.940024
1.00261
1.05206
1.09237
1.12611
1.15442
0.174585
0.4024
0.639204
0.833286
0.971164
1.06238
1.12
1.15622
1.1797
1.19598
1.20842
1.21854
0.20422
0.547341
0.942439
1.17546
1.29332
1.34868
1.36674
1.36432
1.35203
1.3359
1.31965
1.30479
0.597262
0.968824
1.39068
1.57496
1.63194
1.63567
1.60988
1.56976
1.52399
1.4772
1.43302
1.39281
0.40101
0.403749
0.401323
0.39552
0.385366
0.368366
0.345058
0.314063
0.274204
0.227132
0.173109
0.139204
0.714746
0.759864
0.782025
0.782382
0.767626
0.746552
0.719945
0.684083
0.628957
0.51152
0.373272
0.31664
0.899195
0.925973
0.932019
0.926457
0.9121
0.894248
0.874569
0.850266
0.811631
0.73381
0.550312
0.449426
0.995609
1.02091
1.03157
1.03187
1.02531
1.01703
1.00916
1.00084
0.98437
0.936118
0.778944
0.556523
1.05803
1.08302
1.09648
1.10147
1.10147
1.10079
1.10357
1.11085
1.11405
1.09074
0.966814
0.646139
1.09612
1.12214
1.13866
1.14827
1.1548
1.16305
1.17768
1.20065
1.22647
1.23218
1.15596
0.733438
1.1216
1.14832
1.16738
1.18119
1.19353
1.2095
1.23465
1.27254
1.3197
1.35271
1.32049
0.815485
1.14533
1.17048
1.18995
1.20587
1.22182
1.2431
1.27646
1.32785
1.39651
1.45833
1.45963
0.909978
1.17795
1.19726
1.21336
1.22806
1.24431
1.26736
1.30518
1.36714
1.45699
1.55078
1.57639
1.01514
1.22717
1.23493
1.24286
1.25234
1.26512
1.28587
1.32311
1.38889
1.4963
1.63029
1.70128
1.12536
1.29233
1.28309
1.27849
1.27974
1.28601
1.30114
1.33287
1.39623
1.51142
1.68394
1.8414
1.2538
1.35809
1.33048
1.31083
1.30071
1.30227
1.31161
1.33666
1.3918
1.49991
1.69832
1.96577
1.43784
0.0389062
0.0502358
0.0574877
0.0563357
0.0501788
0.0506216
0.0680574
0.188463
0.299557
0.347193
0.373852
0.391874
0.0757742
0.129936
0.133351
0.115196
0.112389
0.20022
0.237302
0.314933
0.41297
0.494197
0.577757
0.653339
0.100443
0.195293
0.244381
0.250781
0.241414
0.297847
0.384049
0.494595
0.602132
0.698267
0.782662
0.849882
0.132384
0.256926
0.285229
0.286703
0.326289
0.418642
0.527909
0.637167
0.7363
0.823047
0.896301
0.953423
0.149496
0.301905
0.340383
0.356878
0.422545
0.524161
0.633325
0.735794
0.825353
0.902629
0.967668
1.01901
0.160041
0.325968
0.377756
0.419361
0.499006
0.601891
0.706109
0.800034
0.881211
0.951127
1.01034
1.05827
0.159556
0.329303
0.397034
0.465698
0.559516
0.663035
0.761547
0.84825
0.922524
0.98619
1.04034
1.08508
0.159395
0.331277
0.421513
0.51945
0.630879
0.736236
0.828484
0.906315
0.971496
1.02662
1.07341
1.11255
0.163098
0.34703
0.484783
0.625204
0.754619
0.85891
0.939669
1.00217
1.05154
1.09177
1.12545
1.15371
0.17458
0.402443
0.63929
0.833382
0.971232
1.06237
1.11991
1.15603
1.1794
1.19558
1.20795
1.21801
0.204237
0.547465
0.942667
1.17576
1.29361
1.34891
1.36688
1.36437
1.35197
1.33573
1.31938
1.30445
0.597278
0.968923
1.39087
1.57524
1.63225
1.63597
1.61013
1.56995
1.52409
1.4772
1.43293
1.39264
0.400639
0.403402
0.400985
0.39524
0.385117
0.368156
0.344881
0.313926
0.274101
0.227062
0.173061
0.139156
0.713854
0.75896
0.781183
0.781692
0.767045
0.74605
0.719513
0.68372
0.628657
0.511307
0.373146
0.316549
0.898168
0.925009
0.931107
0.925653
0.911392
0.893633
0.874038
0.849812
0.811252
0.733511
0.550117
0.449312
0.994526
1.01987
1.03061
1.03098
1.0245
1.01633
1.00854
1.0003
0.983911
0.935746
0.778679
0.556376
1.05695
1.08197
1.09548
1.10054
1.10061
1.1
1.10287
1.11024
1.11353
1.09031
0.966499
0.645975
1.09507
1.12111
1.13766
1.14732
1.15392
1.16223
1.17694
1.19999
1.2259
1.23171
1.1556
0.733258
1.12061
1.14734
1.16643
1.18027
1.19266
1.20868
1.2339
1.27186
1.31911
1.3522
1.32011
0.815294
1.14445
1.16959
1.18907
1.20502
1.221
1.24233
1.27573
1.32718
1.3959
1.45781
1.45923
0.909775
1.1772
1.1965
1.2126
1.2273
1.24358
1.26667
1.30451
1.36651
1.45642
1.55028
1.57601
1.01494
1.22658
1.23432
1.24223
1.25172
1.26451
1.28528
1.32253
1.38834
1.49578
1.62982
1.70092
1.12515
1.29192
1.28264
1.27801
1.27926
1.28554
1.30067
1.33242
1.39578
1.51098
1.68354
1.84107
1.25361
1.35785
1.3302
1.31051
1.30038
1.30194
1.31129
1.33634
1.39147
1.49958
1.698
1.96551
1.43765
0.0388955
0.0502181
0.0574261
0.0562581
0.0500988
0.0505952
0.068306
0.189443
0.300162
0.347648
0.374324
0.392299
0.0757668
0.129887
0.133226
0.11493
0.11247
0.200654
0.237743
0.315799
0.413789
0.495191
0.57876
0.654358
0.100506
0.195554
0.244491
0.25067
0.24153
0.298647
0.38499
0.495745
0.603324
0.699542
0.783946
0.851145
0.132509
0.257136
0.285466
0.287038
0.327005
0.419674
0.529037
0.638386
0.737573
0.824376
0.897651
0.954772
0.149668
0.302229
0.340783
0.357509
0.423424
0.525206
0.634457
0.73698
0.826594
0.90393
0.969012
1.02038
0.160213
0.326301
0.378226
0.420052
0.499875
0.602875
0.70716
0.801144
0.88238
0.952369
1.01164
1.05961
0.159703
0.329625
0.397508
0.466367
0.560312
0.663913
0.762493
0.849258
0.923601
0.987342
1.04156
1.08635
0.15951
0.331537
0.421932
0.520008
0.631528
0.73696
0.829279
0.907181
0.972438
1.02764
1.0745
1.1137
0.163172
0.347198
0.485062
0.625538
0.755014
0.859384
0.940228
1.00282
1.05227
1.0926
1.12636
1.15469
0.174624
0.402486
0.639329
0.833417
0.971302
1.06252
1.12016
1.15638
1.17986
1.19615
1.20861
1.21875
0.204256
0.547423
0.942536
1.17555
1.29341
1.34877
1.36683
1.36442
1.35213
1.336
1.31977
1.30493
0.597278
0.968899
1.39074
1.57499
1.63199
1.63572
1.60992
1.56981
1.52404
1.47725
1.43308
1.39288
0.401057
0.403789
0.401363
0.395556
0.385399
0.368391
0.345084
0.314079
0.274225
0.227136
0.173106
0.139193
0.714885
0.759995
0.782154
0.782507
0.767746
0.746664
0.720051
0.684175
0.629025
0.511569
0.373283
0.316632
0.899399
0.926179
0.932224
0.926656
0.912295
0.894434
0.874745
0.85043
0.811774
0.733923
0.550382
0.449442
0.995858
1.02116
1.03183
1.03213
1.02557
1.01728
1.0094
1.00107
0.984581
0.936294
0.779063
0.556564
1.05831
1.08331
1.09678
1.10178
1.10179
1.1011
1.10387
1.11115
1.11433
1.09098
0.966988
0.646207
1.09642
1.12246
1.13899
1.14861
1.15516
1.1634
1.17804
1.20101
1.2268
1.23248
1.15619
0.733533
1.12191
1.14865
1.16773
1.18155
1.19391
1.20989
1.23505
1.27294
1.32009
1.35307
1.32077
0.815607
1.14564
1.17081
1.1903
1.20624
1.22221
1.24351
1.27688
1.32829
1.39695
1.45874
1.45995
0.910129
1.17824
1.19757
1.2137
1.22841
1.24469
1.26777
1.30562
1.36761
1.45748
1.55124
1.57676
1.01533
1.2274
1.23519
1.24315
1.25266
1.26546
1.28625
1.32353
1.38937
1.49681
1.6308
1.70169
1.12558
1.29249
1.28328
1.27873
1.28001
1.2863
1.30147
1.33326
1.39671
1.51196
1.68449
1.84185
1.25406
1.35818
1.33061
1.311
1.30093
1.30251
1.3119
1.33701
1.39224
1.50044
1.69891
1.96626
1.43815
0.0389089
0.0502396
0.0574933
0.0563421
0.050186
0.0506314
0.068084
0.188563
0.299649
0.347278
0.373939
0.391959
0.0757806
0.129948
0.133369
0.115223
0.112426
0.200286
0.237362
0.315021
0.413067
0.49431
0.577879
0.653472
0.10045
0.195295
0.244429
0.250865
0.241489
0.297884
0.384105
0.494675
0.602228
0.698377
0.782779
0.850004
0.132385
0.256955
0.285273
0.286741
0.326293
0.418649
0.527946
0.637226
0.736373
0.823132
0.896394
0.95352
0.149492
0.301923
0.340391
0.356859
0.422517
0.524152
0.633339
0.735827
0.825399
0.902685
0.96773
1.01908
0.160036
0.325975
0.377752
0.419321
0.498959
0.601859
0.706096
0.800035
0.881222
0.951146
1.01037
1.05831
0.159547
0.329294
0.397007
0.465632
0.559438
0.662964
0.761489
0.848204
0.922489
0.986165
1.04033
1.08508
0.15938
0.331258
0.421461
0.51935
0.630764
0.73612
0.828374
0.906215
0.971408
1.02654
1.07335
1.1125
0.163084
0.347003
0.484718
0.625107
0.754503
0.858778
0.93953
1.00203
1.05141
1.09166
1.12535
1.15362
0.174573
0.402434
0.639263
0.833344
0.971164
1.06227
1.11978
1.15588
1.17926
1.19545
1.20783
1.21791
0.204243
0.54753
0.942738
1.1758
1.29362
1.34887
1.3668
1.36426
1.35185
1.33561
1.31928
1.30436
0.597319
0.969096
1.39104
1.57537
1.63236
1.63603
1.61015
1.56992
1.52404
1.47715
1.43288
1.39259
0.400725
0.403486
0.401069
0.395321
0.385195
0.36823
0.344949
0.313986
0.274148
0.227104
0.173097
0.139193
0.713994
0.759101
0.781322
0.781827
0.767174
0.746173
0.719631
0.683833
0.628767
0.511393
0.373215
0.316612
0.898291
0.92513
0.931226
0.92577
0.911506
0.893745
0.874147
0.849918
0.811354
0.733608
0.550196
0.449376
0.994625
1.01997
1.03071
1.03107
1.0246
1.01642
1.00864
1.00039
0.984005
0.93584
0.778768
0.556445
1.05702
1.08204
1.09555
1.10061
1.10068
1.10007
1.10294
1.11032
1.11361
1.0904
0.966591
0.646043
1.0951
1.12115
1.13771
1.14737
1.15397
1.16228
1.177
1.20006
1.22598
1.23179
1.1557
0.733326
1.12061
1.14734
1.16644
1.18029
1.19269
1.20872
1.23394
1.27191
1.31917
1.35228
1.3202
0.815361
1.14441
1.16957
1.18905
1.20501
1.22101
1.24234
1.27575
1.32722
1.39596
1.45789
1.45932
0.909842
1.17713
1.19644
1.21256
1.22727
1.24356
1.26666
1.30452
1.36653
1.45646
1.55035
1.57609
1.015
1.2265
1.23425
1.24218
1.25168
1.26448
1.28527
1.32253
1.38835
1.49581
1.62987
1.701
1.12521
1.29185
1.28259
1.27797
1.27923
1.28551
1.30066
1.33241
1.39578
1.51098
1.68356
1.84112
1.25364
1.35782
1.33018
1.3105
1.30038
1.30194
1.31129
1.33634
1.39145
1.49956
1.69797
1.96552
1.43766
1.75088
1.7485
1.76144
1.76926
1.76596
1.74919
1.71324
1.66645
1.61275
1.55513
1.49823
1.44379
1.72602
1.68627
1.67013
1.66469
1.66246
1.65512
1.63931
1.61373
1.57573
1.52837
1.47829
1.42639
1.59244
1.56564
1.54
1.51965
1.50369
1.49211
1.47846
1.4617
1.44115
1.41458
1.38187
1.34323
1.43782
1.41802
1.39375
1.36728
1.34156
1.31866
1.29904
1.28251
1.26734
1.25163
1.23615
1.22187
1.39502
1.35565
1.32666
1.30871
1.3066
1.31315
1.33323
1.37828
1.46307
1.63475
1.94715
1.87301
1.37839
1.34029
1.31293
1.29658
1.2949
1.30064
1.31803
1.35306
1.41366
1.52107
1.76426
1.78195
1.30933
1.28572
1.27036
1.26305
1.26322
1.26987
1.28418
1.30836
1.35169
1.41058
1.5601
1.61374
1.21347
1.21079
1.20697
1.20513
1.20477
1.20969
1.22258
1.24299
1.27916
1.31607
1.40114
1.44811
1.75096
1.74856
1.76152
1.7694
1.76614
1.7494
1.71347
1.66665
1.6129
1.55522
1.49825
1.44374
1.72616
1.68638
1.67024
1.66481
1.6626
1.65528
1.63948
1.6139
1.5759
1.5285
1.47838
1.42643
1.59264
1.5658
1.54015
1.5198
1.50384
1.49226
1.47862
1.46186
1.44132
1.41474
1.382
1.34333
1.438
1.41819
1.3939
1.36742
1.3417
1.3188
1.29919
1.28267
1.26751
1.25179
1.23631
1.22202
1.39491
1.3555
1.32648
1.30851
1.3064
1.31296
1.33305
1.37809
1.46288
1.63456
1.94697
1.87285
1.37838
1.34024
1.31286
1.2965
1.29483
1.30058
1.31797
1.35301
1.41362
1.52101
1.7642
1.78189
1.30939
1.28576
1.27039
1.26309
1.26326
1.26992
1.28424
1.30843
1.35178
1.41067
1.56017
1.6138
1.2136
1.21093
1.20711
1.20528
1.20493
1.20986
1.22277
1.24319
1.27937
1.31628
1.40133
1.44828
1.75084
1.74851
1.76147
1.76931
1.76602
1.74925
1.71329
1.6665
1.61279
1.55516
1.49826
1.44383
1.72611
1.68637
1.67026
1.66482
1.6626
1.65525
1.63943
1.61384
1.57582
1.52845
1.47836
1.42645
1.59271
1.56586
1.54023
1.51988
1.50392
1.49232
1.47867
1.4619
1.44133
1.41474
1.382
1.34335
1.43816
1.41835
1.39405
1.36757
1.34184
1.31893
1.2993
1.28275
1.26757
1.25185
1.23636
1.22206
1.39507
1.35574
1.32678
1.30888
1.30682
1.3134
1.33355
1.37868
1.46357
1.63534
1.94768
1.87346
1.37846
1.34038
1.31304
1.29674
1.2951
1.30088
1.31833
1.35343
1.41412
1.52161
1.76487
1.78251
1.30944
1.28584
1.2705
1.26324
1.26342
1.27012
1.28448
1.30874
1.35215
1.41112
1.56076
1.61439
1.21364
1.21098
1.20718
1.20537
1.20504
1.21001
1.22298
1.24346
1.2797
1.31669
1.40185
1.44883
1.75129
1.74883
1.7618
1.76968
1.7664
1.74963
1.71364
1.66677
1.61298
1.55527
1.49829
1.44378
1.72667
1.68685
1.67069
1.66525
1.66303
1.65567
1.63983
1.6142
1.57612
1.52869
1.47853
1.42656
1.59328
1.5664
1.54072
1.52036
1.50438
1.49275
1.47908
1.4623
1.4417
1.41507
1.38226
1.34357
1.4387
1.41887
1.39455
1.36803
1.34228
1.31934
1.29969
1.28311
1.26791
1.25215
1.23663
1.22229
1.39495
1.35555
1.32653
1.30856
1.30643
1.31298
1.33305
1.37806
1.46281
1.63448
1.9469
1.87277
1.37851
1.34036
1.31297
1.29659
1.29491
1.30062
1.31795
1.35295
1.4135
1.52086
1.76401
1.78173
1.3096
1.28594
1.27053
1.26315
1.26333
1.26993
1.28418
1.3083
1.35158
1.41042
1.55987
1.61351
1.21378
1.21105
1.20717
1.20527
1.20488
1.20973
1.22257
1.24293
1.27905
1.3159
1.40091
1.44787
1.27782
1.24734
1.21608
1.1858
1.15921
1.13706
1.11955
1.10609
1.09597
1.08925
1.08759
1.09238
1.14717
1.11558
1.0842
1.0546
1.02862
1.00666
0.988928
0.974987
0.964255
0.956198
0.951194
0.952341
1.04171
1.01434
0.986095
0.958166
0.931648
0.906953
0.884441
0.863874
0.844555
0.825525
0.80776
0.79724
0.954085
0.933233
0.909405
0.8831
0.854746
0.824669
0.793314
0.760463
0.725186
0.685863
0.644766
0.615751
1.1041
1.10691
1.09698
1.09791
1.10791
1.12851
1.15915
1.19578
1.23632
1.27276
1.30632
1.31049
0.964064
0.966127
0.953413
0.960434
0.98367
1.02042
1.06611
1.11392
1.15516
1.18208
1.19654
1.18385
0.810878
0.827098
0.820375
0.833986
0.867204
0.913931
0.967651
1.02035
1.05896
1.08072
1.08839
1.0728
0.633329
0.69406
0.701378
0.722118
0.761329
0.812633
0.869099
0.922271
0.959234
0.979774
0.986926
0.976022
1.27795
1.24747
1.21621
1.18593
1.15935
1.13722
1.11972
1.10626
1.09615
1.08942
1.08778
1.09258
1.14726
1.11567
1.0843
1.05473
1.02876
1.00682
0.989104
0.975175
0.964453
0.956409
0.951427
0.952603
1.04177
1.0144
0.986176
0.958273
0.931783
0.907115
0.884626
0.864079
0.844778
0.825768
0.808028
0.797549
0.954121
0.933266
0.909458
0.883186
0.854867
0.824825
0.793501
0.760677
0.725422
0.686127
0.645047
0.616055
1.10432
1.10717
1.09724
1.09818
1.1082
1.1288
1.15945
1.19609
1.23662
1.27305
1.3066
1.31075
0.964374
0.966471
0.953776
0.960803
0.984045
1.0208
1.06649
1.1143
1.15553
1.18245
1.19689
1.18418
0.811245
0.827517
0.820816
0.83443
0.867646
0.914371
0.96809
1.02079
1.05939
1.08115
1.0888
1.07319
0.633709
0.694527
0.701871
0.722612
0.761818
0.813115
0.869577
0.922747
0.959707
0.98024
0.987382
0.976458
1.27819
1.2477
1.21642
1.18612
1.15951
1.13735
1.11983
1.10635
1.09622
1.08948
1.08782
1.09262
1.14758
1.11596
1.08457
1.05495
1.02894
1.00697
0.989219
0.975263
0.964521
0.95646
0.95147
0.952646
1.04215
1.01474
0.986472
0.958521
0.931981
0.907269
0.884743
0.864166
0.84484
0.825814
0.808072
0.797606
0.954534
0.93364
0.909785
0.883456
0.855082
0.824989
0.793624
0.760765
0.725485
0.686175
0.645099
0.61613
1.10436
1.10722
1.09734
1.09831
1.10837
1.12903
1.15973
1.19641
1.237
1.27349
1.30708
1.31123
0.964427
0.96655
0.953907
0.960976
0.984265
1.02106
1.06678
1.11463
1.15589
1.18284
1.1973
1.18458
0.811317
0.827611
0.820956
0.834607
0.867862
0.914621
0.968365
1.02108
1.0597
1.08146
1.08912
1.07349
0.633803
0.694627
0.701992
0.722761
0.761998
0.813322
0.869804
0.922981
0.959943
0.980479
0.987615
0.976667
1.27866
1.24813
1.21682
1.1865
1.15986
1.13767
1.12012
1.1066
1.09644
1.08965
1.08792
1.09264
1.14795
1.1163
1.08487
1.05523
1.02919
1.00718
0.989401
0.975401
0.964607
0.956473
0.951382
0.952473
1.04241
1.01497
0.986681
0.958702
0.932133
0.907386
0.884818
0.86419
0.844802
0.825695
0.807854
0.797276
0.954708
0.933783
0.9099
0.883548
0.855143
0.825013
0.793602
0.760691
0.725351
0.685961
0.644803
0.615739
1.10429
1.10705
1.09705
1.09795
1.10791
1.12847
1.15907
1.19566
1.23616
1.27256
1.30609
1.31025
0.964143
0.96617
0.953412
0.96041
0.983624
1.02035
1.06601
1.1138
1.155
1.1819
1.19634
1.18366
0.810878
0.827078
0.820332
0.833932
0.86714
0.913857
0.967567
1.02025
1.05883
1.08058
1.08824
1.07268
0.633283
0.694004
0.701314
0.722051
0.76126
0.812562
0.869026
0.922187
0.959137
0.97967
0.986829
0.975961
0.87743
0.8638
0.844892
0.820245
0.789565
0.752715
0.709804
0.660078
0.600671
0.523308
0.402646
0.235657
0.806766
0.800215
0.786397
0.763772
0.731257
0.687948
0.633306
0.56601
0.482184
0.372228
0.208277
0.0669092
0.739059
0.739011
0.730271
0.710264
0.677195
0.629394
0.565854
0.485691
0.387376
0.270459
0.13881
0.0503422
0.673408
0.678467
0.674662
0.657915
0.625959
0.57664
0.508936
0.423487
0.323169
0.217548
0.12267
0.0495688
0.609373
0.618351
0.618845
0.605844
0.576617
0.528859
0.46184
0.378018
0.284003
0.193176
0.119457
0.0496102
0.546897
0.558725
0.562661
0.553602
0.528321
0.484638
0.422049
0.34435
0.259924
0.181504
0.118424
0.0491418
0.485777
0.49954
0.506184
0.500813
0.480133
0.442227
0.386376
0.317003
0.24263
0.173822
0.116512
0.0466424
0.425704
0.440543
0.449137
0.446839
0.430869
0.399721
0.35171
0.291375
0.226494
0.165414
0.111566
0.0426949
0.365714
0.38077
0.390445
0.390525
0.378804
0.354449
0.315089
0.263723
0.207608
0.153212
0.101814
0.0369793
0.303097
0.317274
0.327114
0.328854
0.320638
0.30236
0.272327
0.230107
0.182263
0.134222
0.0853294
0.0295462
0.22869
0.240619
0.249461
0.252071
0.246866
0.233687
0.213212
0.183291
0.143787
0.102998
0.0585911
0.0204805
0.101717
0.108307
0.113937
0.117111
0.116495
0.112346
0.104732
0.093191
0.0773289
0.0565561
0.0340778
0.0129799
0.383227
0.563481
0.5942
0.622757
0.665015
0.71733
0.773282
0.825147
0.861769
0.883199
0.892937
0.889554
0.264375
0.452163
0.499184
0.534301
0.577536
0.628702
0.682364
0.73206
0.768892
0.792515
0.805849
0.809745
0.208267
0.367264
0.41794
0.456066
0.498655
0.547334
0.59781
0.644715
0.681659
0.70776
0.724764
0.734735
0.169613
0.300731
0.349408
0.387464
0.428162
0.473505
0.520292
0.564094
0.600542
0.628368
0.648925
0.663569
0.139707
0.246934
0.291454
0.327668
0.36563
0.407132
0.449966
0.490531
0.525692
0.554349
0.577341
0.595626
0.115037
0.201932
0.24196
0.2756
0.310368
0.347771
0.386539
0.423783
0.457065
0.485577
0.509823
0.530348
0.0940582
0.162909
0.199092
0.230054
0.261452
0.294668
0.329353
0.36322
0.394247
0.421759
0.446139
0.46764
0.0765105
0.127955
0.161304
0.189767
0.217751
0.246768
0.277401
0.307873
0.336363
0.36224
0.385776
0.407125
0.0609528
0.0965978
0.127331
0.153382
0.177838
0.202606
0.229198
0.256252
0.281965
0.305663
0.327545
0.347734
0.0464535
0.0686259
0.0960439
0.119034
0.139424
0.159656
0.182064
0.205597
0.228256
0.249215
0.268603
0.286683
0.0330047
0.0439789
0.065438
0.082808
0.0975123
0.11212
0.129615
0.149008
0.167858
0.185018
0.200632
0.215261
0.0146942
0.0185027
0.0280972
0.03613
0.0421912
0.0478855
0.055114
0.0636145
0.0720627
0.0800361
0.0875537
0.0947981
0.877456
0.863809
0.84492
0.820304
0.789663
0.752853
0.709979
0.660286
0.600904
0.523557
0.402874
0.235781
0.80679
0.800208
0.786399
0.763802
0.731326
0.688057
0.633452
0.566187
0.482378
0.372412
0.208387
0.0669227
0.739087
0.738996
0.730253
0.710268
0.677232
0.629467
0.565961
0.48582
0.387507
0.270558
0.13884
0.0503394
0.673443
0.67845
0.674632
0.657896
0.625967
0.576678
0.508999
0.423564
0.323236
0.217582
0.12267
0.049563
0.609413
0.618335
0.618809
0.60581
0.5766
0.528865
0.461864
0.378049
0.284023
0.193175
0.119445
0.0496053
0.546946
0.558716
0.562627
0.553559
0.528287
0.484619
0.422043
0.344348
0.259915
0.181486
0.118408
0.0491359
0.485837
0.499541
0.506156
0.500768
0.48009
0.442191
0.38635
0.316981
0.242605
0.173797
0.116495
0.0466375
0.425773
0.440556
0.44912
0.446798
0.430823
0.399678
0.351673
0.291342
0.226463
0.165388
0.111551
0.0426921
0.365791
0.380793
0.390442
0.390494
0.378763
0.354406
0.315048
0.263687
0.207576
0.153189
0.101802
0.0369782
0.303171
0.317309
0.327126
0.328836
0.320606
0.302324
0.272291
0.230075
0.182236
0.134204
0.0853226
0.0295477
0.228753
0.240658
0.249483
0.252066
0.246846
0.233662
0.213186
0.183267
0.143768
0.102987
0.0585894
0.0204839
0.101748
0.10833
0.11395
0.117109
0.116488
0.112336
0.104721
0.0931814
0.077322
0.0565533
0.0340798
0.012983
0.383523
0.563965
0.594719
0.623279
0.665531
0.717837
0.773784
0.825646
0.862264
0.883687
0.893414
0.890013
0.26464
0.452636
0.499707
0.534832
0.578061
0.629218
0.682874
0.732567
0.769393
0.793008
0.806332
0.81021
0.208509
0.367714
0.418449
0.456589
0.499174
0.547845
0.598315
0.645216
0.682153
0.708245
0.725238
0.735194
0.169831
0.301149
0.34989
0.387967
0.428664
0.474
0.520781
0.564578
0.60102
0.628837
0.649382
0.66401
0.139902
0.247316
0.291902
0.328141
0.366105
0.407601
0.450429
0.490989
0.526146
0.554794
0.577774
0.596045
0.11521
0.202274
0.242368
0.276036
0.310809
0.348207
0.38697
0.424209
0.457487
0.485993
0.510228
0.530739
0.0942056
0.163208
0.199456
0.230448
0.261853
0.295066
0.329746
0.363609
0.394634
0.42214
0.446512
0.468001
0.0766356
0.128208
0.161621
0.190115
0.218107
0.247122
0.277752
0.308221
0.33671
0.362584
0.386113
0.407453
0.0610565
0.0968028
0.127599
0.153681
0.178146
0.202913
0.229503
0.256556
0.282269
0.305966
0.327844
0.348026
0.0465357
0.0687819
0.0962605
0.119279
0.139677
0.159909
0.182316
0.205851
0.228513
0.249471
0.268858
0.286935
0.033065
0.0440842
0.0655967
0.0829872
0.0976976
0.112304
0.129801
0.149199
0.168053
0.185215
0.20083
0.21546
0.0147182
0.0185413
0.0281631
0.0362088
0.0422727
0.0479652
0.055194
0.0636967
0.0721471
0.0801213
0.0876418
0.0948856
0.877887
0.864202
0.845262
0.820592
0.789894
0.753031
0.710113
0.660385
0.600978
0.523617
0.402935
0.235845
0.80723
0.800609
0.786752
0.764103
0.731572
0.688252
0.633605
0.566307
0.482477
0.372501
0.208477
0.0669619
0.739533
0.7394
0.73061
0.710576
0.677491
0.629679
0.566134
0.485964
0.387634
0.270677
0.138935
0.0503723
0.673866
0.678844
0.674986
0.658207
0.626234
0.576903
0.50919
0.423729
0.323383
0.217709
0.122757
0.0495947
0.609813
0.618713
0.619155
0.606117
0.57687
0.529097
0.462066
0.378226
0.284176
0.193297
0.119524
0.0496349
0.54732
0.559072
0.562957
0.553856
0.528553
0.484852
0.422247
0.344527
0.260064
0.181599
0.11848
0.0491614
0.486183
0.499871
0.506466
0.50105
0.480347
0.442418
0.386548
0.317154
0.242744
0.173897
0.116558
0.0466592
0.426087
0.440854
0.449403
0.447059
0.431064
0.399892
0.351859
0.291503
0.226588
0.165474
0.111604
0.042708
0.366074
0.381055
0.390696
0.390725
0.378981
0.354603
0.315215
0.263834
0.207686
0.153259
0.101846
0.0369883
0.303413
0.317532
0.327339
0.329032
0.320793
0.302494
0.272435
0.230199
0.182327
0.134259
0.085353
0.0295536
0.228942
0.240831
0.249647
0.252216
0.246991
0.233794
0.2133
0.183361
0.143835
0.103024
0.0586073
0.0204844
0.101828
0.108406
0.114021
0.117176
0.116552
0.112393
0.104771
0.0932224
0.0773502
0.0565662
0.0340829
0.0129808
0.383605
0.564048
0.594805
0.623382
0.665657
0.717986
0.77395
0.825814
0.862428
0.883848
0.893565
0.89014
0.264701
0.452684
0.499747
0.534881
0.578128
0.629305
0.682974
0.732672
0.769491
0.793097
0.80641
0.810269
0.20855
0.367725
0.418444
0.456587
0.499186
0.547872
0.598354
0.645261
0.682192
0.708274
0.725255
0.735192
0.169857
0.301129
0.349847
0.38792
0.428627
0.473975
0.520767
0.564569
0.601008
0.628817
0.64935
0.663961
0.139917
0.247273
0.291829
0.328059
0.366029
0.407534
0.450371
0.490937
0.526092
0.554734
0.577705
0.59596
0.115215
0.202216
0.242275
0.27593
0.310705
0.34811
0.386879
0.424123
0.457401
0.485903
0.51013
0.530628
0.0942065
0.163141
0.199352
0.230328
0.261733
0.294949
0.329633
0.363499
0.394524
0.422028
0.446394
0.467873
0.0766333
0.128139
0.161514
0.189992
0.217982
0.246998
0.277628
0.308099
0.336587
0.36246
0.385985
0.407315
0.0610528
0.0967375
0.127495
0.153562
0.178025
0.202791
0.229378
0.256431
0.282143
0.305838
0.327713
0.347887
0.0465315
0.0687261
0.0961652
0.119173
0.139571
0.159801
0.182202
0.205733
0.228393
0.249351
0.268734
0.286803
0.0330619
0.0440456
0.0655189
0.0829069
0.0976185
0.112223
0.12971
0.149103
0.167954
0.185116
0.200727
0.215349
0.014719
0.018531
0.0281304
0.036175
0.042241
0.0479344
0.0551581
0.0636579
0.072107
0.0800824
0.0875989
0.0948405
0.877982
0.864268
0.845302
0.820606
0.789876
0.752976
0.710014
0.660239
0.600784
0.523376
0.402686
0.23566
0.807259
0.800611
0.786727
0.764051
0.73149
0.688135
0.633451
0.566119
0.482266
0.372292
0.208341
0.0669197
0.739509
0.739351
0.730533
0.710473
0.677359
0.629519
0.565947
0.485761
0.387436
0.270514
0.138856
0.0503472
0.673798
0.678755
0.67487
0.658066
0.626067
0.576715
0.508987
0.423527
0.323207
0.217583
0.122692
0.0495707
0.609711
0.618593
0.619012
0.60595
0.576681
0.528894
0.461858
0.378033
0.28402
0.193191
0.119464
0.0496117
0.547195
0.558932
0.562797
0.553673
0.528353
0.484644
0.422043
0.344345
0.259924
0.181505
0.118422
0.0491392
0.486042
0.49972
0.506296
0.500861
0.480143
0.442212
0.386352
0.316982
0.242615
0.173812
0.116504
0.0466386
0.425941
0.440701
0.449233
0.446872
0.430866
0.399694
0.351675
0.291343
0.226469
0.165396
0.111553
0.0426905
0.365926
0.38091
0.390532
0.390551
0.378796
0.354418
0.315047
0.263685
0.207577
0.15319
0.101799
0.0369748
0.303278
0.3174
0.327195
0.328878
0.320629
0.302332
0.272287
0.230069
0.18223
0.134198
0.0853155
0.0295427
0.228831
0.240725
0.249533
0.252095
0.24686
0.233665
0.213182
0.183257
0.143756
0.102976
0.058581
0.020478
0.101786
0.108363
0.113977
0.117124
0.116496
0.112338
0.104717
0.0931752
0.0773122
0.0565413
0.0340696
0.012977
0.383177
0.563412
0.594129
0.622686
0.664945
0.717262
0.773216
0.825076
0.861693
0.883123
0.892873
0.889534
0.264328
0.452094
0.499113
0.534229
0.577465
0.628635
0.6823
0.731994
0.768823
0.792453
0.805806
0.809744
0.208224
0.367201
0.417873
0.455996
0.498584
0.547266
0.597744
0.644647
0.681588
0.707697
0.724725
0.734735
0.169575
0.300675
0.349347
0.387399
0.428093
0.473436
0.520223
0.56402
0.600465
0.628296
0.648876
0.663552
0.139674
0.246887
0.291401
0.327608
0.365565
0.407063
0.449894
0.490453
0.525607
0.554264
0.57727
0.595581
0.115011
0.201895
0.241916
0.275548
0.310307
0.347705
0.386467
0.423702
0.456974
0.485479
0.50973
0.530274
0.094036
0.162882
0.199058
0.23001
0.261398
0.294606
0.329283
0.36314
0.394155
0.421654
0.446027
0.467542
0.0764929
0.127937
0.161279
0.189732
0.217704
0.246712
0.277337
0.307798
0.336274
0.362135
0.385655
0.407011
0.0609397
0.0965879
0.127316
0.153356
0.1778
0.202559
0.229143
0.256186
0.281884
0.305564
0.327427
0.347615
0.0464449
0.0686224
0.096037
0.119016
0.139394
0.159619
0.182021
0.205545
0.22819
0.24913
0.268499
0.286572
0.0329998
0.0439788
0.0654371
0.0827967
0.0974919
0.112095
0.129588
0.148976
0.167814
0.184956
0.200553
0.215173
0.0146916
0.0185021
0.0280974
0.036125
0.0421819
0.0478744
0.0551033
0.0636022
0.072045
0.0800109
0.0875181
0.0947504
)
;

boundaryField
{
    rotor
    {
        type            kqRWallFunction;
        value           nonuniform List<scalar> 
192
(
0.0390295
0.0503889
0.0575724
0.0563968
0.05021
0.0506846
0.0683359
0.18935
0.300118
0.347617
0.37428
0.392258
0.40101
0.403749
0.401323
0.39552
0.385366
0.368366
0.345058
0.314063
0.274204
0.227132
0.173109
0.139204
0.0389062
0.0502358
0.0574877
0.0563357
0.0501788
0.0506216
0.0680574
0.188463
0.299557
0.347193
0.373852
0.391874
0.400639
0.403402
0.400985
0.39524
0.385117
0.368156
0.344881
0.313926
0.274101
0.227062
0.173061
0.139156
0.0388955
0.0502181
0.0574261
0.0562581
0.0500988
0.0505952
0.068306
0.189443
0.300162
0.347648
0.374324
0.392299
0.401057
0.403789
0.401363
0.395556
0.385399
0.368391
0.345084
0.314079
0.274225
0.227136
0.173106
0.139193
0.0389089
0.0502396
0.0574933
0.0563421
0.050186
0.0506314
0.068084
0.188563
0.299649
0.347278
0.373939
0.391959
0.400725
0.403486
0.401069
0.395321
0.385195
0.36823
0.344949
0.313986
0.274148
0.227104
0.173097
0.139193
0.0390295
0.0758021
0.100575
0.13253
0.14965
0.160176
0.159658
0.159463
0.163129
0.174585
0.20422
0.597262
0.139193
0.316612
0.449376
0.556445
0.646043
0.733326
0.815361
0.909842
1.015
1.12521
1.25364
1.43766
0.0389062
0.0757742
0.100443
0.132384
0.149496
0.160041
0.159556
0.159395
0.163098
0.17458
0.204237
0.597278
0.139204
0.31664
0.449426
0.556523
0.646139
0.733438
0.815485
0.909978
1.01514
1.12536
1.2538
1.43784
0.0388955
0.0757668
0.100506
0.132509
0.149668
0.160213
0.159703
0.15951
0.163172
0.174624
0.204256
0.597278
0.139156
0.316549
0.449312
0.556376
0.645975
0.733258
0.815294
0.909775
1.01494
1.12515
1.25361
1.43765
0.0389089
0.0757806
0.10045
0.132385
0.149492
0.160036
0.159547
0.15938
0.163084
0.174573
0.204243
0.597319
0.139193
0.316632
0.449442
0.556564
0.646207
0.733533
0.815607
0.910129
1.01533
1.12558
1.25406
1.43815
)
;
    }
    stator
    {
        type            kqRWallFunction;
        value           nonuniform List<scalar> 
192
(
0.101717
0.108307
0.113937
0.117111
0.116495
0.112346
0.104732
0.093191
0.0773289
0.0565561
0.0340778
0.0129799
0.0146942
0.0185027
0.0280972
0.03613
0.0421912
0.0478855
0.055114
0.0636145
0.0720627
0.0800361
0.0875537
0.0947981
0.101748
0.10833
0.11395
0.117109
0.116488
0.112336
0.104721
0.0931814
0.077322
0.0565533
0.0340798
0.012983
0.0147182
0.0185413
0.0281631
0.0362088
0.0422727
0.0479652
0.055194
0.0636967
0.0721471
0.0801213
0.0876418
0.0948856
0.101828
0.108406
0.114021
0.117176
0.116552
0.112393
0.104771
0.0932224
0.0773502
0.0565662
0.0340829
0.0129808
0.014719
0.018531
0.0281304
0.036175
0.042241
0.0479344
0.0551581
0.0636579
0.072107
0.0800824
0.0875989
0.0948405
0.101786
0.108363
0.113977
0.117124
0.116496
0.112338
0.104717
0.0931752
0.0773122
0.0565413
0.0340696