/*--------------------------------*- C++ -*----------------------------------*\
| =========                 |                                                 |
| \\      /  F ield         | OpenFOAM: The Open Source CFD Toolbox           |
|  \\    /   O peration     | Version:  v1912                                 |
|   \\  /    A nd           | Website:  www.openfoam.com                      |
|    \\/     M anipulation  |                                                 |
\*---------------------------------------------------------------------------*/
FoamFile
{
    version     2.0;
    format      ascii;
    class       volScalarField;
    location    "300";
    object      nut;
}
// * * * * * * * * * * * * * * * * * * * * * * * * * * * * * * * * * * * * * //

dimensions      [0 2 -1 0 0 0 0];


internalField   nonuniform List<scalar> 
3072
(
3.07957e-05
6.40681e-05
6.8565e-05
6.79149e-05
6.40931e-05
6.41527e-05
7.33799e-05
0.000121643
0.000155277
0.000167663
0.000174053
0.000178338
4.78837e-05
0.000169014
0.000192941
0.000150647
8.42705e-05
0.000134498
0.000165693
0.000233007
0.000333338
0.000454921
0.000608213
0.000767958
6.08313e-05
0.000265537
0.000284893
0.000248159
0.000224783
0.000300121
0.000432149
0.000611261
0.000844244
0.00109018
0.00133198
0.00154663
7.65095e-05
0.000347715
0.000357
0.000342011
0.000415302
0.000590542
0.000817126
0.00107747
0.00136932
0.00164744
0.00189945
0.00211568
8.83793e-05
0.000434915
0.000500375
0.000530297
0.000680678
0.00091034
0.00118421
0.001482
0.00178245
0.00206111
0.00230814
0.00251972
9.88489e-05
0.00051623
0.000635874
0.000736242
0.000932409
0.00119073
0.00147884
0.00177979
0.00207229
0.00234197
0.0025815
0.00278603
0.000106067
0.000578485
0.0007617
0.000919053
0.00114998
0.0014199
0.00170478
0.00199003
0.00226326
0.00251471
0.00273982
0.00293423
0.000113459
0.000657197
0.000894047
0.00110892
0.00137433
0.00164631
0.0019141
0.00217071
0.0024115
0.00263212
0.00282972
0.00300169
0.000122287
0.000722274
0.00106553
0.00135392
0.00162636
0.00187462
0.0021012
0.00230973
0.00250234
0.00267924
0.0028406
0.00298343
0.000134238
0.000803355
0.0012321
0.00155775
0.00180965
0.00201636
0.00219355
0.002353
0.00250048
0.00263846
0.00276784
0.00288725
0.000153531
0.000763675
0.00132443
0.00165356
0.00187778
0.00205305
0.00220296
0.00233323
0.00245118
0.00256108
0.00266506
0.00276319
0.000276853
0.000749043
0.00139715
0.00175849
0.00195191
0.00211601
0.00224236
0.00234536
0.00243437
0.00251493
0.0025906
0.00266271
0.00018035
0.000181028
0.000180471
0.000179219
0.000176949
0.000173041
0.000167504
0.000159851
0.000149397
0.000135997
0.000118719
5.81156e-05
0.000912871
0.00103524
0.00110767
0.00111977
0.00107984
0.00100532
0.00089314
0.000744523
0.000571959
0.000344937
0.000170363
9.79895e-05
0.00171528
0.00182375
0.00186614
0.00185686
0.00179284
0.00167306
0.00150021
0.00127377
0.000992843
0.000662002
0.000288037
0.000129052
0.00228536
0.00240123
0.00246118
0.00246743
0.00241733
0.00230432
0.00211954
0.0018543
0.00150319
0.00105884
0.00051541
0.000157267
0.00269088
0.00281482
0.00289097
0.00291948
0.00289416
0.00280397
0.00263842
0.00237758
0.00198711
0.00144677
0.000752566
0.000184185
0.00295399
0.00308303
0.0031715
0.00321804
0.00321972
0.00316852
0.00304737
0.00282603
0.00245013
0.00186107
0.00104429
0.000211918
0.00309613
0.00322468
0.00331985
0.00338144
0.00341083
0.00340393
0.00334312
0.00318587
0.00286223
0.00226615
0.00134805
0.000239999
0.00314704
0.00326504
0.00335643
0.00342424
0.00347326
0.00350454
0.00350665
0.00343773
0.00320229
0.00264181
0.00164213
0.000270995
0.00310725
0.0032118
0.00329816
0.00336966
0.00343134
0.00349012
0.00354537
0.00356844
0.00345576
0.00298399
0.00190194
0.000304704
0.00299577
0.00309264
0.00317977
0.00325695
0.00332124
0.00339156
0.00348049
0.00357344
0.003594
0.00329103
0.00220179
0.00034029
0.00285533
0.00294183
0.00302754
0.00311463
0.00318917
0.00325416
0.00335051
0.0034862
0.003621
0.00351419
0.00255756
0.000379768
0.00273289
0.00280304
0.00287545
0.00295447
0.00304798
0.00312092
0.00320792
0.00335647
0.00355305
0.00365093
0.00295449
0.000428793
3.07472e-05
6.39761e-05
6.85224e-05
6.78864e-05
6.40825e-05
6.41236e-05
7.32439e-05
0.000121345
0.000155128
0.000167562
0.000173957
0.000178255
4.78768e-05
0.000168966
0.000193002
0.000151034
8.43415e-05
0.000134135
0.000165313
0.00023247
0.000332702
0.00045397
0.00060722
0.000766876
6.07946e-05
0.00026517
0.000284891
0.000248182
0.000224534
0.000299335
0.000431161
0.000609916
0.000842634
0.00108844
0.00133016
0.00154478
7.64699e-05
0.000347557
0.000356643
0.000341162
0.000414319
0.000589255
0.000815586
0.00107563
0.0013673
0.00164538
0.00189729
0.00211348
8.83383e-05
0.000434565
0.000499793
0.000529552
0.000679401
0.000908899
0.0011824
0.00148003
0.00178035
0.00205893
0.0023059
0.00251744
9.88086e-05
0.000515917
0.000635228
0.0007353
0.000931158
0.00118935
0.00147704
0.00177783
0.00207022
0.00233983
0.00257931
0.00278382
0.000106034
0.000578201
0.000761111
0.000918118
0.00114893
0.00141869
0.00170331
0.00198838
0.00226147
0.0025128
0.00273776
0.00293212
0.000113438
0.000657028
0.000893573
0.00110834
0.00137357
0.00164534
0.00191293
0.00216935
0.00240996
0.00263045
0.00282797
0.00299986
0.00012228
0.000722247
0.00106541
0.00135368
0.00162589
0.00187391
0.00210029
0.00230862
0.00250105
0.00267787
0.00283911
0.00298184
0.000134242
0.000803538
0.0012322
0.00155767
0.00180939
0.00201586
0.00219287
0.00235215
0.00249947
0.00263733
0.0027666
0.00288594
0.000153542
0.000763823
0.00132454
0.00165362
0.00187778
0.00205293
0.0022027
0.00233281
0.0024506
0.00256036
0.00266421
0.00276224
0.000276847
0.000749124
0.00139733
0.00175877
0.00195215
0.0021162
0.00224248
0.00234536
0.00243424
0.00251465
0.00259019
0.00266218
0.000180267
0.000180945
0.000180402
0.000179156
0.000176894
0.000172994
0.000167464
0.000159818
0.000149371
0.000135978
0.000118704
5.81061e-05
0.000911701
0.00103388
0.00110642
0.00111877
0.00107908
0.00100463
0.000892591
0.000744124
0.000571686
0.000344798
0.000170319
9.79763e-05
0.00171347
0.00182194
0.00186435
0.00185527
0.00179149
0.00167192
0.00149929
0.00127306
0.000992357
0.000661727
0.000287943
0.000129037
0.00228319
0.0023991
0.00245916
0.00246553
0.00241559
0.00230284
0.00211831
0.00185331
0.00150247
0.00105841
0.000515245
0.000157247
0.00268861
0.0028126
0.00288878
0.00291743
0.00289219
0.00280217
0.00263689
0.00237635
0.00198618
0.00144619
0.000752332
0.000184163
0.00295179
0.00308081
0.00316931
0.00321592
0.00321769
0.00316663
0.00304569
0.00282461
0.00244907
0.00186037
0.00104399
0.000211893
0.00309401
0.00322257
0.00331775
0.00337938
0.00340883
0.00340204
0.00334138
0.00318436
0.00286104
0.00226535
0.0013477
0.000239973
0.00314515
0.00326312
0.00335449
0.00342232
0.00347138
0.00350272
0.00350492
0.00343619
0.00320104
0.00264095
0.00164175
0.000270967
0.00310558
0.00321009
0.00329642
0.00336792
0.00342963
0.00348845
0.00354371
0.00356693
0.00345451
0.00298313
0.00190157
0.000304675
0.00299439
0.0030912
0.00317831
0.00325547
0.00331976
0.0033901
0.00347906
0.00357212
0.00359286
0.0032902
0.00220146
0.00034026
0.0028543
0.00294074
0.0030264
0.00311347
0.00318799
0.00325298
0.00334936
0.00348504
0.00361993
0.00351345
0.00255725
0.00037974
0.00273225
0.00280232
0.00287468
0.00295366
0.00304719
0.00312011
0.00320705
0.00335556
0.00355221
0.00365024
0.00295422
0.000428767
3.07417e-05
6.39622e-05
6.84815e-05
6.7835e-05
6.40257e-05
6.40978e-05
7.33556e-05
0.000121663
0.000155284
0.000167669
0.000174061
0.000178346
4.78709e-05
0.000168948
0.000192765
0.000150374
8.41327e-05
0.000134468
0.000165766
0.000233105
0.000333465
0.000455117
0.000608421
0.000768192
6.08082e-05
0.000265383
0.000284683
0.00024792
0.000224656
0.000300348
0.000432372
0.000611575
0.00084462
0.0010906
0.00133242
0.00154711
7.65018e-05
0.000347633
0.000356946
0.000342016
0.000415519
0.000590916
0.000817529
0.00107796
0.00136987
0.00164804
0.00190008
0.00211634
8.83836e-05
0.000434954
0.000500474
0.000530568
0.000681072
0.000910774
0.00118476
0.00148263
0.00178313
0.00206184
0.00230891
0.00252052
9.88593e-05
0.000516379
0.000636165
0.000736698
0.000932923
0.0011913
0.00147951
0.00178053
0.00207309
0.00234281
0.00258239
0.00278697
0.000106081
0.000578688
0.000762113
0.000919613
0.00115064
0.00142061
0.00170556
0.00199086
0.00226414
0.00251564
0.00274079
0.00293525
0.000113477
0.000657411
0.000894489
0.00110958
0.00137506
0.00164709
0.00191492
0.00217157
0.00241239
0.00263306
0.00283072
0.00300273
0.000122305
0.00072249
0.00106598
0.00135447
0.00162695
0.00187527
0.00210189
0.00231046
0.00250314
0.0026801
0.00284153
0.00298443
0.000134257
0.00080353
0.00123239
0.00155807
0.00181002
0.00201679
0.00219403
0.00235355
0.0025011
0.00263917
0.00276864
0.00288815
0.000153548
0.000763783
0.00132459
0.00165374
0.00187805
0.00205337
0.00220332
0.00233364
0.00245165
0.00256164
0.00266571
0.00276394
0.000276853
0.000749158
0.00139731
0.00175867
0.00195218
0.00211632
0.0022427
0.00234573
0.00243479
0.0025154
0.00259114
0.00266334
0.000180359
0.000181036
0.000180479
0.000179227
0.000176956
0.000173048
0.000167511
0.000159856
0.000149403
0.000135999
0.000118719
5.81136e-05
0.000913112
0.0010355
0.00110793
0.00112005
0.0010801
0.00100558
0.000893377
0.000744701
0.000572068
0.000344993
0.000170377
9.79886e-05
0.00171578
0.00182427
0.00186665
0.00185734
0.00179329
0.00167348
0.00150057
0.00127406
0.000993054
0.000662124
0.000288086
0.000129055
0.00228604
0.00240193
0.00246187
0.0024681
0.00241796
0.00230489
0.00212004
0.00185474
0.00150352
0.00105906
0.000515491
0.000157273
0.00269171
0.00281568
0.00289182
0.00292033
0.00289498
0.00280474
0.00263912
0.00237817
0.00198758
0.00144707
0.000752694
0.000184195
0.00295497
0.00308402
0.0031725
0.00321905
0.00322072
0.00316949
0.00304828
0.00282682
0.00245074
0.00186149
0.00104447
0.000211931
0.00309719
0.00322578
0.00332098
0.00338259
0.00341199
0.00340508
0.00334422
0.00318686
0.00286303
0.00226669
0.00134829
0.000240017
0.00314814
0.0032662
0.00335764
0.0034255
0.00347455
0.00350584
0.00350794
0.00343893
0.00320329
0.00264249
0.00164243
0.000271018
0.00310833
0.00321296
0.00329938
0.00337094
0.00343268
0.00349152
0.00354682
0.00356986
0.003457
0.00298486
0.0019023
0.000304732
0.00299677
0.00309374
0.00318097
0.00325821
0.00332255
0.00339296
0.003482
0.00357503
0.00359549
0.00329211
0.00220223
0.000340322
0.00285619
0.00294281
0.00302867
0.00311584
0.00319037
0.00325546
0.00335198
0.0034879
0.00362271
0.00351555
0.00255809
0.000379805
0.00273361
0.00280387
0.00287641
0.00295558
0.00304913
0.00312211
0.00320933
0.00335819
0.00355492
0.00365257
0.00295517
0.000428838
3.07482e-05
6.39779e-05
6.85251e-05
6.78897e-05
6.40866e-05
6.41293e-05
7.32579e-05
0.000121378
0.000155152
0.000167583
0.000173977
0.000178274
4.78788e-05
0.000168955
0.000193016
0.000151058
8.43539e-05
0.000134158
0.000165328
0.000232501
0.000332742
0.000454033
0.00060729
0.000766964
6.07973e-05
0.000265134
0.000284919
0.000248223
0.000224553
0.000299293
0.000431133
0.000609916
0.000842665
0.00108849
0.00133023
0.00154487
7.64701e-05
0.000347542
0.000356597
0.000341092
0.000414175
0.000589095
0.000815479
0.00107558
0.00136728
0.00164538
0.00189732
0.00211353
8.83388e-05
0.000434493
0.000499614
0.000529279
0.000679135
0.000908687
0.00118224
0.0014799
0.00178025
0.00205887
0.00230586
0.00251742
9.88068e-05
0.000515798
0.000634968
0.00073495
0.000930803
0.00118903
0.00147679
0.00177763
0.00207005
0.00233968
0.00257919
0.00278372
0.000106031
0.000578035
0.000760756
0.000917669
0.00114844
0.00141823
0.00170289
0.00198801
0.00226115
0.00251253
0.00273755
0.00293196
0.000113432
0.000656856
0.000893186
0.00110776
0.00137297
0.00164477
0.00191241
0.00216888
0.00240957
0.00263012
0.00282769
0.00299963
0.000122274
0.000722094
0.00106502
0.0013532
0.00162542
0.00187347
0.00209988
0.00230826
0.00250074
0.00267761
0.00283889
0.00298166
0.000134239
0.000803458
0.00123205
0.00155755
0.00180928
0.00201575
0.00219276
0.00235205
0.00249937
0.00263725
0.00276653
0.00288586
0.000153543
0.000763922
0.00132468
0.00165377
0.00187795
0.00205304
0.0022028
0.00233289
0.00245067
0.00256042
0.00266427
0.0027623
0.000276847
0.000749332
0.00139761
0.00175906
0.00195248
0.00211652
0.00224276
0.00234562
0.00243447
0.00251487
0.0025904
0.00266238
0.000180286
0.000180964
0.000180421
0.000179175
0.000176912
0.000173012
0.00016748
0.000159833
0.000149383
0.00013599
0.000118716
5.81139e-05
0.000911795
0.00103398
0.00110651
0.00111885
0.00107915
0.0010047
0.000892653
0.000744182
0.000571747
0.000344836
0.000170336
9.79859e-05
0.00171357
0.00182204
0.00186446
0.00185539
0.00179161
0.00167204
0.00149941
0.00127317
0.000992443
0.000661791
0.000287969
0.000129046
0.00228325
0.00239917
0.00245925
0.00246563
0.00241571
0.00230297
0.00211844
0.00185343
0.00150257
0.00105848
0.000515286
0.000157257
0.00268862
0.00281262
0.00288883
0.0029175
0.00289229
0.00280229
0.00263703
0.00237648
0.0019863
0.00144629
0.000752387
0.000184172
0.00295171
0.00308077
0.00316929
0.00321594
0.00321774
0.0031667
0.00304579
0.00282474
0.0024492
0.00186048
0.00104405
0.000211902
0.00309387
0.00322246
0.00331768
0.00337935
0.00340884
0.00340208
0.00334147
0.00318447
0.00286117
0.00226547
0.00134777
0.000239982
0.00314496
0.00326298
0.00335439
0.00342227
0.00347136
0.00350275
0.00350499
0.00343629
0.00320116
0.00264107
0.00164182
0.000270977
0.00310544
0.00320998
0.00329634
0.00336786
0.00342962
0.00348846
0.00354376
0.00356701
0.00345462
0.00298324
0.00190165
0.000304684
0.00299432
0.00309115
0.00317827
0.00325544
0.00331975
0.00339013
0.0034791
0.00357218
0.00359292
0.00329028
0.00220153
0.000340267
0.00285435
0.00294079
0.00302646
0.00311351
0.00318802
0.00325302
0.00334942
0.00348509
0.00361995
0.00351345
0.0025573
0.000379745
0.00273244
0.0028025
0.00287485
0.00295382
0.00304732
0.0031202
0.00320712
0.00335557
0.00355215
0.00365016
0.00295422
0.000428767
0.00168455
0.00175146
0.00186956
0.00200861
0.00213308
0.00225066
0.00233783
0.00240677
0.00246485
0.00251541
0.00256191
0.002606
0.00270048
0.00251749
0.00243544
0.00241937
0.0024299
0.00245278
0.00247228
0.00249167
0.00251756
0.00254128
0.00256276
0.00258317
0.00335154
0.00314664
0.00297176
0.00284459
0.00274742
0.00268978
0.00265028
0.00262369
0.00261013
0.00259207
0.00257647
0.00257264
0.0035766
0.00340884
0.00324194
0.0030863
0.00294548
0.00282526
0.00273911
0.00267832
0.00263771
0.00260888
0.00259519
0.00259674
0.00265188
0.00270366
0.0027636
0.00283237
0.00292876
0.00301842
0.0031024
0.00324751
0.00344766
0.00370535
0.0038128
0.00177941
0.00261005
0.00264838
0.00269984
0.00276315
0.00285395
0.00294569
0.00303947
0.00317719
0.00336248
0.00360262
0.00407961
0.00303008
0.00259234
0.00263281
0.00268772
0.00275614
0.0028391
0.00293738
0.00304804
0.00317371
0.00333918
0.00351827
0.00392939
0.0036146
0.00262274
0.00268002
0.00274443
0.00282448
0.00291373
0.00302452
0.00314742
0.00327576
0.00341922
0.00354246
0.00379388
0.00375097
0.00168466
0.00175164
0.00186982
0.00200897
0.00213343
0.002251
0.00233819
0.00240705
0.00246503
0.00251547
0.00256185
0.00260582
0.00270077
0.00251785
0.00243588
0.00241986
0.0024304
0.00245325
0.00247275
0.0024921
0.00251789
0.00254152
0.0025629
0.00258321
0.00335193
0.00314701
0.0029722
0.00284507
0.00274793
0.00269027
0.00265075
0.00262414
0.00261056
0.00259245
0.00257676
0.00257285
0.00357692
0.00340919
0.00324233
0.00308672
0.00294591
0.00282569
0.00273953
0.00267876
0.00263813
0.00260928
0.00259557
0.00259708
0.00265159
0.00270329
0.00276316
0.00283188
0.00292825
0.00301791
0.0031019
0.003247
0.00344714
0.00370492
0.00381256
0.00177934
0.00261
0.00264828
0.00269969
0.00276298
0.0028538
0.00294556
0.00303934
0.00317709
0.00336239
0.00360255
0.00407957
0.00303012
0.00259248
0.00263292
0.00268782
0.00275628
0.00283927
0.00293761
0.00304833
0.00317404
0.00333954
0.00351865
0.00392971
0.0036149
0.00262303
0.00268036
0.00274484
0.00282498
0.00291432
0.00302519
0.00314815
0.00327653
0.00342
0.00354323
0.00379458
0.00375157
0.00168464
0.00175167
0.00186983
0.00200894
0.00213346
0.00225106
0.00233824
0.00240719
0.00246529
0.00251588
0.00256241
0.00260655
0.00270083
0.00251793
0.00243596
0.00241992
0.00243047
0.00245334
0.00247283
0.00249221
0.00251808
0.00254179
0.00256327
0.00258371
0.00335226
0.00314728
0.00297245
0.0028453
0.00274814
0.00269046
0.00265095
0.00262436
0.00261076
0.00259266
0.002577
0.00257324
0.00357748
0.00340974
0.00324281
0.00308714
0.00294627
0.00282601
0.00273985
0.00267901
0.00263838
0.00260955
0.00259587
0.00259739
0.0026525
0.00270438
0.00276443
0.00283333
0.00292987
0.00301955
0.00310373
0.00324915
0.00344956
0.00370731
0.00381398
0.00177969
0.00261064
0.00264905
0.0027006
0.00276405
0.00285494
0.00294683
0.00304081
0.00317879
0.00336438
0.00360465
0.00408154
0.00303104
0.00259295
0.00263349
0.0026885
0.0027571
0.00284016
0.00293863
0.00304949
0.00317539
0.00334108
0.00352037
0.00393168
0.0036163
0.00262339
0.00268081
0.00274539
0.00282563
0.00291504
0.00302603
0.00314912
0.00327765
0.0034212
0.00354463
0.0037962
0.00375299
0.00168487
0.00175191
0.00187018
0.00200938
0.00213391
0.0022515
0.00233864
0.00240747
0.00246543
0.00251585
0.0025622
0.00260616
0.00270147
0.00251844
0.00243646
0.00242044
0.002431
0.00245386
0.00247333
0.00249265
0.00251843
0.00254204
0.00256337
0.00258368
0.00335332
0.00314812
0.00297316
0.00284597
0.00274874
0.002691
0.00265147
0.00262487
0.00261121
0.00259304
0.00257724
0.00257344
0.00357864
0.00341069
0.00324361
0.00308784
0.00294687
0.00282652
0.00274032
0.0026794
0.00263873
0.00260984
0.0025961
0.00259748
0.00265192
0.0027036
0.00276345
0.00283212
0.00292844
0.00301805
0.00310196
0.00324694
0.00344696
0.00370466
0.00381238
0.00177915
0.00261046
0.00264869
0.00270006
0.00276324
0.00285404
0.00294569
0.00303929
0.00317687
0.003362
0.00360207
0.00407909
0.00302981
0.00259298
0.00263331
0.00268811
0.00275629
0.00283943
0.00293753
0.00304803
0.00317352
0.00333884
0.00351783
0.00392886
0.00361424
0.0026232
0.0026804
0.00274472
0.00282468
0.002914
0.00302462
0.00314734
0.00327554
0.00341889
0.00354199
0.00379338
0.00375066
0.00344317
0.0032712
0.00310535
0.00295342
0.00282228
0.00271692
0.00264197
0.00259112
0.00256177
0.00255296
0.00257288
0.00262566
0.00335323
0.00318231
0.00301839
0.00286828
0.00273847
0.00263295
0.0025524
0.00249191
0.00244913
0.00242458
0.0024285
0.00248521
0.00329003
0.00312682
0.00296536
0.00281282
0.00267522
0.00255468
0.00244943
0.00235383
0.00226237
0.00217132
0.00209186
0.00206743
0.00324043
0.00309153
0.00293359
0.00277581
0.00262448
0.00247858
0.00233413
0.00218224
0.00201021
0.00179782
0.00154427
0.00132036
0.00271877
0.00286218
0.00295511
0.00305449
0.00316843
0.00328636
0.00340021
0.00350441
0.00359475
0.0036643
0.00369972
0.00363059
0.00262219
0.00289368
0.00302176
0.00313238
0.00325218
0.00337057
0.0034793
0.00357029
0.00362863
0.00364812
0.0036364
0.00353257
0.00218505
0.00277463
0.00299075
0.00311967
0.00324273
0.00335948
0.00346524
0.00354931
0.0035896
0.00359453
0.00356536
0.00345344
0.00132004
0.00246206
0.00286208
0.0030463
0.00317314
0.00328973
0.0033957
0.00347694
0.0035129
0.00351544
0.00348427
0.0033851
0.00344346
0.00327153
0.0031057
0.0029538
0.00282268
0.00271733
0.00264238
0.00259154
0.00256219
0.00255339
0.00257333
0.00262614
0.00335349
0.00318257
0.00301867
0.00286859
0.00273881
0.00263332
0.00255279
0.00249232
0.00244956
0.00242503
0.00242901
0.00248577
0.00329023
0.00312699
0.00296555
0.00281304
0.00267548
0.00255499
0.00244978
0.00235421
0.00226267
0.00217174
0.00209232
0.00206793
0.00324057
0.00309159
0.00293367
0.00277591
0.00262464
0.0024788
0.0023344
0.00218242
0.00200978
0.00179806
0.0015446
0.00132062
0.00271933
0.00286294
0.00295603
0.00305548
0.00316949
0.00328745
0.0034013
0.00350549
0.00359579
0.0036653
0.00370066
0.00363144
0.00262288
0.00289477
0.00302309
0.0031338
0.00325363
0.003372
0.0034807
0.00357165
0.00362994
0.00364937
0.00363759
0.00353366
0.00218567
0.00277594
0.00299241
0.00312143
0.00324451
0.00336121
0.00346691
0.00355092
0.00359114
0.00359602
0.00356677
0.00345476
0.00132038
0.00246337
0.00286397
0.00304835
0.00317521
0.00329172
0.0033976
0.00347875
0.00351464
0.00351713
0.00348589
0.00338663
0.00344425
0.00327225
0.00310632
0.00295434
0.00282314
0.00271774
0.00264275
0.00259187
0.00256251
0.0025537
0.00257366
0.00262649
0.00335451
0.00318349
0.00301948
0.00286928
0.00273939
0.00263381
0.00255322
0.00249269
0.00244989
0.00242534
0.00242931
0.00248608
0.00329149
0.00312812
0.00296654
0.00281389
0.00267619
0.00255558
0.00245026
0.00235459
0.00226298
0.002172
0.00209254
0.00206815
0.00324203
0.00309291
0.00293483
0.00277694
0.0026255
0.00247949
0.00233495
0.00218285
0.00201009
0.00179827
0.00154474
0.00132074
0.00271972
0.00286335
0.00295654
0.00305601
0.00317007
0.00328817
0.00340208
0.00350636
0.00359676
0.00366641
0.00370176
0.00363246
0.00262319
0.00289507
0.00302344
0.00313417
0.00325403
0.00337248
0.00348124
0.00357227
0.00363063
0.00365011
0.00363834
0.00353433
0.00218589
0.00277608
0.00299253
0.00312159
0.00324465
0.00336142
0.00346719
0.00355125
0.00359153
0.00359645
0.00356721
0.00345511
0.00132053
0.00246341
0.00286387
0.00304824
0.00317508
0.00329166
0.00339762
0.0034788
0.00351475
0.00351729
0.00348605
0.00338671
0.00344508
0.00327292
0.00310693
0.00295507
0.00282362
0.00271807
0.00264303
0.00259206
0.00256261
0.00255367
0.00257342
0.0026261
0.00335503
0.0031839
0.00301982
0.00286962
0.00273963
0.00263398
0.00255332
0.0024927
0.00244978
0.00242507
0.0024288
0.00248545
0.00329172
0.00312826
0.00296664
0.002814
0.00267625
0.0025556
0.00245023
0.00235449
0.00226289
0.00217167
0.00209207
0.00206752
0.00324203
0.00309281
0.00293468
0.00277686
0.00262541
0.00247939
0.00233483
0.00218283
0.00201069
0.00179809
0.00154443
0.00132038
0.00271905
0.00286236
0.00295515
0.00305451
0.00316839
0.00328617
0.00339991
0.00350402
0.00359431
0.00366383
0.0036993
0.00363024
0.00262232
0.00289369
0.00302164
0.00313222
0.00325193
0.00337021
0.00347886
0.00356979
0.00362812
0.00364763
0.00363597
0.0035322
0.00218506
0.00277452
0.00299052
0.00311936
0.00324233
0.00335899
0.00346469
0.00354872
0.003589
0.00359397
0.00356485
0.00345304
0.00132001
0.00246188
0.00286177
0.0030459
0.00317264
0.00328914
0.00339506
0.00347625
0.00351222
0.00351477
0.00348366
0.00338465
0.00319497
0.00306404
0.00291408
0.00275113
0.00258598
0.00241256
0.00222511
0.00201216
0.00175188
0.00140037
0.000847695
0.000255198
0.00314247
0.00303376
0.00289707
0.00273383
0.00256005
0.00236564
0.00214424
0.00188581
0.00157319
0.00117606
0.000607772
0.000140015
0.00307263
0.00299145
0.00287382
0.00271767
0.00254311
0.00233888
0.00209917
0.00181874
0.00149311
0.00112762
0.000634934
0.000125066
0.00298676
0.00292906
0.00283548
0.00269388
0.00252683
0.00232437
0.00208215
0.00180091
0.00148924
0.00117387
0.000734904
0.000128044
0.00288075
0.0028423
0.00277319
0.00265193
0.00249915
0.00230759
0.00207442
0.00180462
0.00151186
0.00120622
0.000796616
0.000132157
0.00274657
0.00272455
0.00267691
0.00257918
0.00244511
0.00227012
0.00205203
0.00179642
0.00151378
0.00119546
0.000802401
0.000135485
0.00256986
0.00256278
0.00253399
0.00245935
0.0023463
0.00219059
0.00198988
0.00174699
0.00146761
0.00113803
0.000765979
0.000135929
0.00233031
0.00233669
0.00232369
0.00226945
0.0021784
0.00204324
0.0018619
0.00163204
0.00135701
0.00103392
0.000681602
0.000133802
0.00199584
0.0020132
0.00201225
0.00197548
0.00190449
0.00179315
0.00163899
0.00142721
0.00116767
0.00087101
0.000553707
0.000128043
0.00151792
0.0015395
0.0015463
0.00152445
0.0014724
0.00139028
0.00127835
0.00110232
0.000883161
0.000640515
0.000384561
0.000117612
0.000833902
0.00084963
0.000857744
0.000849348
0.000821953
0.000777331
0.000719329
0.000625037
0.000481079
0.000335023
0.000180914
0.000100578
8.90396e-05
9.18026e-05
9.40849e-05
9.52843e-05
9.49796e-05
9.32358e-05
8.99956e-05
8.48822e-05
7.7304e-05
6.60882e-05
5.1304e-05
3.16831e-05
0.000325252
0.00202084
0.00267835
0.00292659
0.00306288
0.00318154
0.00328924
0.00337365
0.00341318
0.00341688
0.00339212
0.00331473
0.000279675
0.00179327
0.00249102
0.00277637
0.00292449
0.00304683
0.00315711
0.00324769
0.00329539
0.00330691
0.00328928
0.00323348
0.00025663
0.00161139
0.00230364
0.00260689
0.00276589
0.00289245
0.00300605
0.00310218
0.00316122
0.00318674
0.00317826
0.00313926
0.000239176
0.00144738
0.00211473
0.002424
0.00259116
0.00272144
0.00283811
0.00293841
0.0030101
0.00304883
0.00305635
0.00303281
0.000223946
0.00129084
0.00192122
0.00222929
0.00240097
0.00253359
0.00265277
0.00275693
0.00283782
0.00289028
0.00291434
0.00290934
0.00020945
0.00113357
0.00171998
0.00202119
0.00219275
0.00232546
0.00244616
0.00255383
0.00264146
0.00270522
0.00274428
0.00275729
0.000195047
0.000964166
0.00150688
0.00179565
0.00196069
0.00208996
0.00221039
0.00232034
0.00241289
0.00248458
0.00253545
0.00256401
0.000181011
0.000776133
0.00127737
0.00154622
0.0016952
0.00181559
0.00193249
0.00204206
0.0021365
0.00221252
0.00227062
0.00231026
0.000166117
0.000588802
0.00102869
0.00126183
0.0013815
0.00148511
0.00159278
0.00169674
0.00178767
0.00186241
0.00192191
0.00196655
0.000148999
0.000412063
0.00075579
0.000914045
0.000987825
0.00106443
0.00115437
0.00124553
0.00132736
0.00139355
0.00144541
0.00148678
0.000128958
0.000243681
0.000422097
0.000473991
0.000501016
0.000540745
0.000597495
0.0006588
0.00071391
0.000756075
0.000787225
0.000813084
3.40127e-05
3.81128e-05
4.6905e-05
5.3233e-05
5.75752e-05
6.13692e-05
6.58105e-05
7.06681e-05
7.51721e-05
7.91866e-05
8.27581e-05
8.60346e-05
0.00319507
0.00306401
0.00291406
0.0027511
0.00258601
0.00241265
0.00222527
0.0020123
0.00175193
0.00140059
0.000847916
0.000255263
0.0031426
0.00303368
0.00289694
0.00273369
0.00255995
0.00236559
0.00214425
0.00188584
0.00157322
0.00117614
0.000607854
0.000140031
0.00307285
0.00299137
0.00287362
0.00271743
0.00254289
0.0023387
0.00209903
0.00181863
0.00149299
0.0011275
0.000634893
0.000125066
0.00298704
0.002929
0.00283524
0.00269359
0.00252651
0.00232407
0.00208188
0.00180065
0.00148896
0.00117362
0.000734842
0.00012804
0.00288104
0.00284226
0.00277295
0.00265161
0.00249878
0.00230722
0.00207406
0.00180427
0.00151152
0.00120597
0.000796549
0.000132155
0.00274687
0.00272454
0.0026767
0.00257885
0.00244473
0.00226973
0.00205164
0.00179605
0.00151345
0.00119525
0.000802319
0.000135482
0.00257016
0.00256281
0.00253382
0.00245905
0.00234594
0.00219021
0.0019895
0.00174664
0.00146732
0.00113785
0.00076591
0.000135926
0.00233059
0.00233674
0.00232357
0.0022692
0.00217809
0.0020429
0.00186156
0.00163175
0.00135678
0.00103377
0.000681554
0.000133802
0.0019961
0.00201327
0.00201218
0.00197529
0.00190425
0.0017929
0.00163873
0.00142698
0.0011675
0.000870904
0.000553658
0.000128046
0.00151812
0.00153956
0.00154626
0.00152433
0.00147223
0.00139012
0.00127818
0.00110217
0.000883051
0.00064045
0.000384524
0.000117619
0.000834013
0.000849678
0.000857755
0.000849297
0.000821885
0.000777261
0.000719262
0.000624977
0.000481032
0.000334997
0.000180902
0.000100591
8.90535e-05
9.18131e-05
9.40914e-05
9.52851e-05
9.49782e-05
9.32334e-05
8.9993e-05
8.48801e-05
7.7303e-05
6.60891e-05
5.13076e-05
3.16884e-05
0.000325374
0.00202211
0.00268039
0.00292887
0.00306517
0.00318373
0.00329133
0.00337563
0.00341508
0.00341873
0.00339391
0.00331643
0.000279809
0.00179458
0.00249315
0.00277881
0.00292693
0.00304917
0.00315932
0.00324979
0.00329741
0.00330885
0.00329118
0.00323534
0.000256772
0.00161274
0.00230581
0.0026094
0.00276842
0.00289488
0.00300835
0.00310436
0.00316331
0.00318874
0.00318022
0.00314119
0.000239322
0.00144873
0.00211689
0.00242652
0.00259372
0.00272389
0.00284043
0.00294063
0.00301221
0.00305085
0.00305832
0.00303473
0.000224094
0.00129216
0.00192332
0.00223175
0.00240348
0.00253601
0.00265506
0.0027591
0.00283991
0.00289228
0.00291628
0.00291122
0.000209599
0.00113484
0.00172198
0.00202352
0.00219513
0.00232776
0.00244834
0.00255591
0.00264345
0.00270714
0.00274614
0.00275908
0.000195192
0.00096537
0.00150873
0.00179779
0.00196287
0.00209207
0.00221239
0.00232225
0.00241473
0.00248636
0.00253718
0.00256567
0.000181151
0.000777205
0.00127902
0.00154808
0.00169709
0.00181741
0.00193423
0.00204374
0.00213812
0.00221409
0.00227215
0.00231172
0.000166251
0.000589698
0.00103009
0.00126333
0.00138301
0.00148657
0.00159418
0.0016981
0.00178899
0.0018637
0.00192316
0.00196774
0.000149124
0.000412738
0.000756871
0.000915084
0.000988841
0.00106541
0.00115533
0.00124647
0.00132829
0.00139446
0.0014463
0.00148762
0.000129069
0.000244081
0.000422712
0.000474506
0.000501504
0.000541209
0.000597956
0.00065926
0.000714368
0.00075653
0.000787669
0.000813506
3.4039e-05
3.81506e-05
4.69582e-05
5.32891e-05
5.7629e-05
6.14189e-05
6.58572e-05
7.0713e-05
7.52155e-05
7.92282e-05
8.27993e-05
8.60738e-05
0.00319669
0.0030655
0.00291537
0.0027523
0.00258703
0.00241348
0.00222592
0.00201279
0.00175228
0.00140079
0.000848016
0.000255299
0.00314437
0.00303531
0.0028984
0.00273503
0.00256112
0.00236657
0.00214504
0.00188646
0.00157368
0.00117646
0.000608083
0.000140069
0.0030748
0.00299313
0.00287519
0.00271888
0.00254419
0.00233982
0.00209997
0.00181939
0.0014936
0.00112796
0.000635229
0.000125102
0.00298894
0.00293081
0.00283689
0.0026951
0.00252791
0.00232531
0.00208294
0.00180155
0.00148971
0.00117419
0.000735218
0.000128077
0.00288288
0.00284406
0.00277462
0.00265314
0.00250022
0.00230852
0.0020752
0.00180525
0.00151233
0.00120659
0.000796954
0.000132189
0.00274861
0.00272626
0.00267832
0.00258035
0.00244614
0.00227102
0.00205279
0.00179704
0.00151426
0.00119589
0.000802717
0.000135512
0.00257176
0.00256439
0.00253532
0.00246045
0.00234727
0.00219143
0.0019906
0.00174759
0.00146808
0.00113845
0.0007663
0.000135953
0.002332
0.00233812
0.00232488
0.00227044
0.00217926
0.00204398
0.00186254
0.00163258
0.00135745
0.00103426
0.000681877
0.000133823
0.00199725
0.00201437
0.00201323
0.00197629
0.00190519
0.00179377
0.00163951
0.00142766
0.00116803
0.000871279
0.000553931
0.00012806
0.00151891
0.00154032
0.00154699
0.00152501
0.00147288
0.00139073
0.00127872
0.00110264
0.000883409
0.000640697
0.000384698
0.000117627
0.000834406
0.000850044