/*--------------------------------*- C++ -*----------------------------------*\
| =========                 |                                                 |
| \\      /  F ield         | OpenFOAM: The Open Source CFD Toolbox           |
|  \\    /   O peration     | Version:  v1912                                 |
|   \\  /    A nd           | Website:  www.openfoam.com                      |
|    \\/     M anipulation  |                                                 |
\*---------------------------------------------------------------------------*/
FoamFile
{
    version     2.0;
    format      ascii;
    class       volScalarField;
    location    "300";
    object      p;
}
// * * * * * * * * * * * * * * * * * * * * * * * * * * * * * * * * * * * * * //

dimensions      [0 2 -2 0 0 0 0];


internalField   nonuniform List<scalar> 
3072
(
0.000744505
-0.135737
-0.262075
-0.344112
-0.365026
-0.346396
-0.304649
-0.189684
0.00570201
-0.0666529
-0.369954
-0.673179
0.660831
0.437258
0.308621
0.256613
0.30117
0.503132
0.701294
1.22791
1.93735
2.25926
2.43241
2.50378
1.39781
1.11402
1.03265
1.07697
1.2765
1.69105
2.11518
2.50777
2.87793
3.1096
3.28935
3.40466
2.37539
2.16936
2.18625
2.3972
2.77143
3.19522
3.59474
3.95454
4.25464
4.47872
4.65871
4.79507
3.42899
3.34906
3.48244
3.7957
4.19987
4.60496
4.97198
5.30038
5.56577
5.76758
5.92331
6.03738
4.48072
4.52406
4.74988
5.11752
5.53164
5.92098
6.2597
6.54051
6.76442
6.93653
7.06819
7.16532
5.50786
5.68746
5.98309
6.38329
6.79517
7.16149
7.46337
7.70223
7.88631
8.02496
8.12844
8.20368
6.54189
6.86216
7.2073
7.62033
8.01139
8.33801
8.5927
8.78461
8.92606
9.02864
9.1026
9.15491
7.60521
8.07423
8.44542
8.8445
9.18904
9.45556
9.65016
9.78752
9.88241
9.94714
9.99134
10.0211
8.71699
9.30056
9.68357
10.046
10.3241
10.5116
10.6335
10.7093
10.7545
10.7806
10.796
10.8047
9.8736
10.6026
10.9435
11.1908
11.3727
11.4672
11.5109
11.5251
11.5239
11.5163
11.5085
11.5014
10.8913
11.9338
12.1323
12.18
12.239
12.2452
12.2242
12.1925
12.1607
12.134
12.1162
12.1038
-0.918371
-0.976749
-0.892406
-0.637666
-0.258781
0.241841
0.816336
1.41032
1.94248
2.38215
2.60533
2.43446
2.57158
2.60088
2.65303
2.72199
2.83068
2.96325
3.11893
3.26911
3.40131
3.62063
3.56738
2.85176
3.47886
3.53728
3.61325
3.70847
3.81844
3.93157
4.0354
4.09589
4.08848
4.08059
3.93506
2.90608
4.90227
4.98703
5.05624
5.11049
5.14966
5.16919
5.16114
5.09131
4.93632
4.73718
4.45439
3.14194
6.12176
6.18318
6.22608
6.25075
6.25558
6.23473
6.17713
6.06697
5.86409
5.57805
5.23873
3.73257
7.23564
7.28397
7.31347
7.32455
7.31567
7.28245
7.21344
7.09677
6.90248
6.60747
6.25
4.7548
8.25688
8.29207
8.31199
8.31769
8.3087
8.28225
8.23153
8.14516
8.00153
7.77408
7.49545
6.16487
9.19112
9.2148
9.22889
9.23554
9.23581
9.22949
9.21383
9.18326
9.12809
9.02718
8.92075
7.94839
10.0413
10.0548
10.0649
10.075
10.0882
10.1073
10.1341
10.1709
10.2228
10.2883
10.4428
10.0303
10.8106
10.8148
10.821
10.8335
10.8581
10.9009
10.9679
11.0702
11.2273
11.4665
11.9941
12.3372
11.4973
11.4948
11.4974
11.5096
11.5394
11.5978
11.6932
11.8449
12.0799
12.4649
13.4045
14.6692
12.0983
12.0935
12.0942
12.1042
12.1319
12.1924
12.2959
12.4659
12.7218
13.1562
14.2014
16.1804
0.00193335
-0.134884
-0.261213
-0.34312
-0.364057
-0.345238
-0.303829
-0.189157
0.00710024
-0.0634505
-0.366625
-0.66979
0.661365
0.43798
0.30924
0.257024
0.301268
0.503034
0.701759
1.22581
1.93617
2.2595
2.43296
2.50477
1.39795
1.11388
1.03214
1.07616
1.27498
1.68917
2.11393
2.50662
2.8774
3.10963
3.28962
3.40524
2.37507
2.16848
2.18482
2.39522
2.76938
3.19347
3.59342
3.95353
4.25416
4.47859
4.65879
4.79531
3.42872
3.34814
3.48094
3.79392
4.19822
4.60363
4.97099
5.29966
5.56544
5.76745
5.92337
6.03755
4.48074
4.52336
4.74873
5.11622
5.5305
5.92011
6.25908
6.54013
6.76422
6.93651
7.06825
7.16546
5.5082
5.68706
5.9823
6.38244
6.79447
7.16097
7.46305
7.70205
7.88629
8.02501
8.12856
8.20383
6.5424
6.86197
7.20683
7.61984
8.01102
8.33778
8.5926
8.78461
8.92614
9.02877
9.10275
9.15508
7.60572
8.07423
8.44521
8.8443
9.18893
9.45555
9.65023
9.78765
9.88259
9.94733
9.99154
10.0213
8.71735
9.30054
9.68346
10.046
10.3242
10.5117
10.6337
10.7095
10.7547
10.7808
10.7962
10.8049
9.87382
10.6026
10.9434
11.1908
11.3728
11.4674
11.5112
11.5254
11.5241
11.5165
11.5087
11.5016
10.8915
11.9337
12.1323
12.18
12.2391
12.2454
12.2243
12.1927
12.1609
12.1342
12.1164
12.104
-0.915498
-0.974193
-0.890396
-0.636019
-0.257606
0.242705
0.816844
1.41062
1.94257
2.38207
2.60506
2.43425
2.57258
2.60187
2.65386
2.72264
2.83115
2.96356
3.11911
3.26918
3.40129
3.62048
3.56724
2.8517
3.47955
3.53799
3.61386
3.70899
3.81884
3.93185
4.03559
4.096
4.08853
4.08059
3.93508
2.90618
4.90253
4.98733
5.05656
5.11079
5.14992
5.16939
5.16129
5.09141
4.9364
4.73723
4.45447
3.14211
6.12198
6.18343
6.22632
6.251
6.25578
6.23492
6.17726
6.06709
5.86418
5.57816
5.23884
3.73276
7.23581
7.28416
7.31367
7.32472
7.31585
7.28258
7.21358
7.09687
6.9026
6.60751
6.2501
4.75493
8.25705
8.29224
8.31215
8.31786
8.30883
8.28239
8.23163
8.14528
8.00159
7.77416
7.49545
6.16489
9.19129
9.21496
9.22905
9.23567
9.23595
9.2296
9.21395
9.18334
9.12818
9.02716
8.92069
7.94832
10.0415
10.055
10.065
10.0751
10.0883
10.1074
10.1342
10.1709
10.2229
10.2883
10.4427
10.0302
10.8108
10.815
10.8211
10.8337
10.8582
10.901
10.968
11.0703
11.2273
11.4666
11.994
12.337
11.4975
11.495
11.4976
11.5097
11.5395
11.5979
11.6933
11.845
12.08
12.4649
13.4045
14.669
12.0985
12.0937
12.0944
12.1043
12.132
12.1925
12.296
12.466
12.7219
13.1563
14.2014
16.1802
0.00172109
-0.135013
-0.261211
-0.342929
-0.363589
-0.344891
-0.30291
-0.187847
0.00727087
-0.065416
-0.368583
-0.671709
0.661315
0.438159
0.309762
0.257966
0.302725
0.504953
0.703054
1.23008
1.93906
2.26055
2.4336
2.50489
1.39821
1.11478
1.03363
1.07815
1.2779
1.6926
2.11667
2.50925
2.87927
3.11086
3.29057
3.40582
2.37561
2.16983
2.18696
2.39818
2.77259
3.1964
3.5959
3.95567
4.25569
4.47974
4.65971
4.79606
3.42924
3.34947
3.48308
3.79653
4.20078
4.60587
4.97289
5.30128
5.56663
5.76843
5.92415
6.03822
4.48099
4.52448
4.75048
5.11823
5.53236
5.9217
6.2604
6.54122
6.76513
6.93724
7.0689
7.16603
5.50816
5.68791
5.98365
6.3839
6.79576
7.16206
7.46394
7.70281
7.8869
8.02555
8.12905
8.20429
6.54223
6.8626
7.20781
7.62085
8.01188
8.33848
8.59317
8.78509
8.92655
9.02916
9.10312
9.15544
7.60555
8.07463
8.44587
8.84494
9.18945
9.45596
9.65057
9.78794
9.88285
9.94759
9.99181
10.0216
8.71728
9.30092
9.68396
10.0464
10.3245
10.512
10.6339
10.7097
10.7549
10.781
10.7964
10.8051
9.87386
10.6029
10.9438
11.1911
11.373
11.4675
11.5113
11.5255
11.5243
11.5167
11.5089
11.5018
10.8915
11.934
12.1326
12.1803
12.2393
12.2455
12.2245
12.1929
12.1611
12.1344
12.1166
12.1042
-0.916726
-0.975053
-0.890682
-0.63601
-0.257215
0.243234
0.817551
1.41131
1.94327
2.38273
2.60577
2.43494
2.57269
2.60202
2.65416
2.72312
2.83175
2.96427
3.11986
3.26994
3.40204
3.6212
3.56785
2.85234
3.48001
3.53842
3.61436
3.70956
3.81947
3.93254
4.0363
4.09673
4.08925
4.08129
3.93568
2.90686
4.90324
4.98798
5.05716
5.1114
5.15055
5.17006
5.16199
5.09215
4.93714
4.73799
4.45516
3.14288
6.12258
6.184
6.22689
6.25157
6.25639
6.23554
6.17795
6.06779
5.86493
5.57892
5.23958
3.73362
7.23635
7.28469
7.31418
7.32526
7.3164
7.28318
7.2142
7.09755
6.9033
6.60836
6.25091
4.7559
8.2575
8.29269
8.31261
8.31832
8.30934
8.28291
8.23222
8.14589
8.00232
7.77495
7.49638
6.16599
9.19165
9.21534
9.22944
9.23609
9.23638
9.23007
9.21445
9.18391
9.12881
9.02799
8.92166
7.94948
10.0418
10.0553
10.0654
10.0755
10.0887
10.1078
10.1347
10.1714
10.2235
10.2891
10.4437
10.0314
10.811
10.8153
10.8214
10.834
10.8586
10.9014
10.9684
11.0707
11.2278
11.4671
11.9949
12.3381
11.4978
11.4952
11.4978
11.51
11.5398
11.5982
11.6936
11.8453
12.0803
12.4653
13.4052
14.6699
12.0987
12.0939
12.0946
12.1046
12.1322
12.1928
12.2963
12.4662
12.7221
13.1565
14.2019
16.1808
0.00170625
-0.13513
-0.261475
-0.343376
-0.364309
-0.345498
-0.304051
-0.189313
0.00691494
-0.0638892
-0.367255
-0.670583
0.661109
0.437682
0.308922
0.25672
0.300989
0.502812
0.7016
1.22593
1.93629
2.25951
2.4329
2.5046
1.39764
1.11347
1.03169
1.07572
1.27462
1.68891
2.11372
2.50646
2.87727
3.10946
3.28943
3.405
2.37474
2.16803
2.18431
2.39473
2.769
3.19322
3.59326
3.95342
4.25406
4.47848
4.65868
4.79518
3.42843
3.34775
3.48052
3.79355
4.19797
4.60349
4.97091
5.29962
5.56541
5.76743
5.92334
6.03751
4.48054
4.52305
4.74842
5.116
5.5304
5.92009
6.25911
6.54019
6.76428
6.93656
7.06829
7.16549
5.5081
5.68683
5.9821
6.38236
6.79451
7.16108
7.4632
7.70221
7.88644
8.02513
8.12867
8.20391
6.54238
6.86181
7.20674
7.61987
8.01117
8.338
8.59284
8.78485
8.92635
9.02896
9.10291
9.15521
7.60574
8.07415
8.4452
8.84441
9.18915
9.45583
9.65052
9.78793
9.88283
9.94754
9.99172
10.0215
8.7174
9.30053
9.68352
10.0462
10.3245
10.512
10.634
10.7098
10.755
10.781
10.7964
10.8051
9.87391
10.6026
10.9435
11.191
11.3731
11.4677
11.5115
11.5257
11.5244
11.5168
11.5089
11.5018
10.8916
11.9338
12.1324
12.1803
12.2394
12.2457
12.2247
12.1931
12.1612
12.1345
12.1167
12.1042
-0.916367
-0.975087
-0.891248
-0.636792
-0.25825
0.242219
0.816543
1.4105
1.94263
2.38232
2.60547
2.43459
2.57236
2.6016
2.65359
2.72239
2.83095
2.96343
3.11906
3.26922
3.40142
3.62076
3.56755
2.85189
3.47928
3.53772
3.61361
3.70876
3.81867
3.93174
4.03554
4.09601
4.08859
4.08071
3.93523
2.90619
4.9024
4.9872
5.05643
5.11068
5.14983
5.16933
5.16126
5.09141
4.93642
4.73727
4.45451
3.14199
6.12192
6.18336
6.22626
6.25094
6.25573
6.23488
6.17724
6.06709
5.86418
5.57815
5.23882
3.73261
7.23581
7.28416
7.31366
7.32471
7.31584
7.28258
7.21359
7.09689
6.90262
6.60752
6.25009
4.7548
8.25711
8.29229
8.31218
8.31788
8.30886
8.28242
8.23167
8.14532
8.00163
7.7742
7.49549
6.16484
9.19139
9.21504
9.22912
9.23572
9.236
9.22965
9.214
9.18341
9.12825
9.02725
8.92078
7.94838
10.0416
10.0551
10.0651
10.0752
10.0884
10.1074
10.1343
10.171
10.223
10.2885
10.4429
10.0304
10.8109
10.8151
10.8212
10.8337
10.8583
10.9011
10.9681
11.0704
11.2275
11.4667
11.9942
12.3373
11.4977
11.4951
11.4977
11.5098
11.5396
11.598
11.6934
11.8451
12.0801
12.465
13.4047
14.6694
12.0987
12.0938
12.0945
12.1044
12.132
12.1926
12.2961
12.4661
12.722
13.1565
14.2016
16.1805
12.9401
13.1332
13.0251
12.9036
12.8424
12.7853
12.7286
12.6788
12.6415
12.6176
12.6089
12.6064
13.2971
13.1677
13.1654
13.1218
13.0933
13.0568
13.0168
12.9858
12.9711
12.9731
12.9932
13.0169
13.4306
13.3451
13.321
13.2706
13.2333
13.2005
13.1762
13.1707
13.1894
13.2308
13.2949
13.36
13.5157
13.444
13.3882
13.3253
13.2754
13.2426
13.2343
13.2602
13.326
13.43
13.568
13.7133
12.6122
12.6111
12.6127
12.6197
12.6397
12.6888
12.7785
12.9327
13.1448
13.4558
13.8158
14.7876
13.0479
13.0559
13.0605
13.0617
13.0676
13.0931
13.1509
13.2663
13.4196
13.6457
13.752
14.0419
13.4284
13.4448
13.4523
13.4417
13.4245
13.4144
13.4236
13.4793
13.5598
13.7142
13.7432
13.8288
13.8431
13.8541
13.858
13.8208
13.7616
13.6916
13.622
13.5819
13.56
13.6236
13.6141
13.6901
12.9402
13.133
13.0249
12.9035
12.8424
12.7853
12.7286
12.6789
12.6415
12.6177
12.609
12.6065
13.2973
13.1675
13.1652
13.1217
13.0932
13.0567
13.0167
12.9857
12.971
12.973
12.9932
13.0169
13.4308
13.345
13.3208
13.2705
13.233
13.2002
13.176
13.1705
13.1892
13.2306
13.2948
13.36
13.516
13.444
13.3881
13.325
13.275
13.2422
13.2338
13.2598
13.3256
13.4297
13.5678
13.7132
12.6123
12.6113
12.6128
12.6198
12.6398
12.6889
12.7786
12.9328
13.1449
13.4559
13.8159
14.7876
13.048
13.0561
13.0607
13.0619
13.0677
13.0932
13.151
13.2664
13.4197
13.6459
13.752
14.042
13.4285
13.445
13.4525
13.4419
13.4246
13.4145
13.4237
13.4794
13.5599
13.7143
13.7433
13.8289
13.8433
13.8543
13.8582
13.821
13.7618
13.6917
13.6221
13.582
13.5601
13.6238
13.6141
13.6903
12.9402
13.1333
13.0253
12.9038
12.8426
12.7856
12.7288
12.6791
12.6418
12.618
12.6093
12.6068
13.2974
13.1678
13.1655
13.122
13.0935
13.057
13.017
12.986
12.9713
12.9734
12.9935
13.0172
13.4309
13.3452
13.3211
13.2708
13.2334
13.2006
13.1764
13.1709
13.1896
13.231
13.2952
13.3603
13.5161
13.4442
13.3883
13.3254
13.2754
13.2427
13.2344
13.2603
13.3261
13.4301
13.5682
13.7135
12.6125
12.6115
12.6131
12.62
12.64
12.6891
12.7789
12.9331
13.145
13.456
13.816
14.788
13.0483
13.0563
13.0609
13.0621
13.0679
13.0934
13.1512
13.2666
13.4199
13.6459
13.7521
14.0423
13.4287
13.4451
13.4526
13.442
13.4248
13.4147
13.4239
13.4797
13.5601
13.7144
13.7433
13.8291
13.8434
13.8544
13.8582
13.8211
13.7619
13.6918
13.6223
13.5822
13.5604
13.624
13.6144
13.6905
12.9405
13.1333
13.0253
12.9039
12.8428
12.7858
12.7291
12.6794
12.642
12.6181
12.6093
12.6068
13.2977
13.168
13.1658
13.1223
13.0938
13.0573
13.0174
12.9863
12.9716
12.9736
12.9936
13.0172
13.4312
13.3455
13.3214
13.2711
13.2338
13.201
13.1768
13.1713
13.19
13.2313
13.2954
13.3604
13.5165
13.4446
13.3887
13.3258
13.2759
13.2432
13.2349
13.2609
13.3266
13.4305
13.5685
13.7136
12.6125
12.6114
12.6129
12.6199
12.6398
12.6889
12.7787
12.9329
13.145
13.456
13.816
14.7876
13.0482
13.0562
13.0607
13.0619
13.0678
13.0933
13.151
13.2664
13.4197
13.6459
13.7521
14.0419
13.4287
13.4451
13.4525
13.4419
13.4246
13.4145
13.4237
13.4794
13.5599
13.7142
13.7432
13.8287
13.8435
13.8544
13.8582
13.821
13.7618
13.6917
13.622
13.5819
13.5599
13.6236
13.614
13.6899
13.609
13.5586
13.4992
13.4381
13.3842
13.3462
13.3325
13.3524
13.4113
13.5094
13.6392
13.7918
13.7205
13.6747
13.6219
13.5689
13.52
13.4811
13.4589
13.4609
13.4928
13.5552
13.6424
13.7527
13.8034
13.7605
13.7122
13.6633
13.6153
13.5727
13.5412
13.5285
13.5418
13.5837
13.6512
13.7444
13.8636
13.8225
13.7763
13.7279
13.6773
13.6281
13.586
13.5595
13.5587
13.5898
13.6503
13.6966
13.9798
14.0105
14.0369
14.0088
13.9559
13.8833
13.8018
13.7308
13.6699
13.6664
13.6282
13.6714
13.9668
13.996
14.0382
14.0307
14.0052
13.9647
13.9183
13.8774
13.8403
13.8279
13.7888
13.784
14.0152
14.0179
14.0644
14.0672
14.0553
14.0305
14.0001
13.9711
13.9419
13.923
13.8847
13.8612
14.1606
14.0783
14.104
14.1071
14.0996
14.0824
14.0597
14.0352
14.008
13.9841
13.9457
13.9145
13.6093
13.5586
13.499
13.4378
13.3838
13.3457
13.3321
13.3519
13.4109
13.5091
13.6389
13.7917
13.7208
13.6746
13.6219
13.5687
13.5197
13.4808
13.4585
13.4605
13.4925
13.5548
13.6421
13.7525
13.8035
13.7604
13.7121
13.6631
13.615
13.5724
13.5409
13.5282
13.5415
13.5833
13.6508
13.7442
13.8637
13.8225
13.7762
13.7277
13.6771
13.6279
13.5857
13.5592
13.5584
13.5894
13.6499
13.6962
13.98
14.0106
14.0371
14.009
13.9561
13.8834
13.8019
13.7309
13.67
13.6665
13.6283
13.6715
13.9669
13.9961
14.0383
14.0308
14.0054
13.9648
13.9184
13.8775
13.8404
13.8281
13.7889
13.7841
14.0152
14.018
14.0646
14.0674
14.0555
14.0306
14.0003
13.9713
13.942
13.9232
13.8848
13.8614
14.1608
14.0785
14.1042
14.1073
14.0998
14.0826
14.0598
14.0354
14.0081
13.9842
13.9459
13.9147
13.6095
13.5588
13.4993
13.4381
13.3843
13.3462
13.3326
13.3525
13.4114
13.5096
13.6394
13.792
13.7209
13.6748
13.6221
13.569
13.5201
13.4812
13.459
13.461
13.4929
13.5553
13.6425
13.7529
13.8037
13.7606
13.7124
13.6634
13.6154
13.5728
13.5413
13.5286
13.5419
13.5838
13.6512
13.7446
13.8639
13.8227
13.7764
13.728
13.6774
13.6282
13.5861
13.5596
13.5588
13.5899
13.6503
13.6966
13.9802
14.0108
14.0372
14.0091
13.9562
13.8835
13.8021
13.7311
13.6703
13.6668
13.6286
13.6719
13.9672
13.9963
14.0385
14.031
14.0056
13.965
13.9186
13.8778
13.8407
13.8284
13.7893
13.7845
14.0155
14.0183
14.0648
14.0676
14.0557
14.0309
14.0005
13.9716
13.9423
13.9235
13.8852
13.8617
14.1612
14.0787
14.1044
14.1075
14.1
14.0828
14.0601
14.0357
14.0085
13.9846
13.9462
13.9151
13.6098
13.5592
13.4997
13.4386
13.3847
13.3467
13.3332
13.353
13.412
13.51
13.6397
13.7922
13.7213
13.6752
13.6225
13.5694
13.5206
13.4817
13.4595
13.4615
13.4934
13.5557
13.6428
13.753
13.8041
13.761
13.7128
13.6638
13.6158
13.5732
13.5417
13.5291
13.5424
13.5842
13.6516
13.7448
13.8643
13.8231
13.7768
13.7284
13.6778
13.6286
13.5865
13.56
13.5592
13.5903
13.6507
13.6969
13.9801
14.0107
14.0371
14.0089
13.956
13.8833
13.8018
13.7307
13.6699
13.6663
13.6282
13.6711
13.9671
13.9962
14.0384
14.0308
14.0054
13.9647
13.9183
13.8774
13.8403
13.828
13.7888
13.7838
14.0154
14.0181
14.0646
14.0674
14.0554
14.0305
14.0002
13.9712
13.9419
13.9231
13.8848
13.8611
14.1608
14.0785
14.1042
14.1072
14.0997
14.0825
14.0598
14.0353
14.008
13.9841
13.9458
13.9145
13.907
13.8658
13.8192
13.7686
13.7129
13.6551
13.6007
13.559
13.5405
13.5465
13.576
13.4955
13.9368
13.894
13.8451
13.7904
13.728
13.6606
13.5939
13.5377
13.5028
13.4884
13.5166
13.5051
13.9563
13.911
13.8587
13.7989
13.7295
13.6532
13.5764
13.5099
13.4673
13.4515
13.4772
13.4964
13.9684
13.9204
13.8643
13.7995
13.724
13.6408
13.5573
13.4862
13.4432
13.4331
13.4604
13.494
13.9754
13.9252
13.8657
13.7966
13.7165
13.6288
13.5421
13.4709
13.431
13.4273
13.46
13.5016
13.9794
13.9274
13.8655
13.7932
13.71
13.6201
13.5328
13.464
13.4288
13.4317
13.4721
13.5171
13.982
13.9289
13.8655
13.7911
13.7063
13.6158
13.5295
13.4643
13.434
13.4431
13.4905
13.5375
13.9846
13.931
13.867
13.7918
13.7065
13.6162
13.5314
13.4698
13.4437
13.4584
13.5117
13.5591
13.9882
13.935
13.8714
13.7963
13.7112
13.6214
13.5379
13.479
13.4555
13.4743
13.5314
13.5791
13.995
13.9433
13.8811
13.8071
13.7226
13.633
13.5489
13.4909
13.4666
13.4869
13.5459
13.5951
14.0065
13.9582
13.8991
13.8272
13.7436
13.653
13.5662
13.5057
13.4759
13.4951
13.5563
13.6037
14.0163
13.9716
13.9163
13.8479
13.7669
13.677
13.5904
13.5197
13.488
13.5042
13.5626
13.6054
14.4431
14.2094
14.1508
14.1434
14.1348
14.1212
14.1025
14.0802
14.0537
14.0269
13.9889
13.9539
14.4304
14.2647
14.1844
14.1708
14.1615
14.1497
14.1329
14.1114
14.0849
14.0563
14.019
13.982
14.3903
14.2645
14.2052
14.1896
14.1813
14.1703
14.1543
14.1328
14.1059
14.076
14.0392
14.001
14.3487
14.2522
14.2173
14.2023
14.1956
14.1851
14.1693
14.1473
14.1199
14.0889
14.0521
14.0132
14.3142
14.2415
14.2243
14.2113
14.2059
14.1956
14.1795
14.157
14.129
14.0971
14.0603
14.0206
14.2905
14.235
14.2287
14.218
14.2134
14.2031
14.1864
14.1632
14.1346
14.1022
14.0653
14.0251
14.2787
14.2336
14.2321
14.2231
14.2187
14.2083
14.1909
14.1669
14.138
14.1053
14.0685
14.028
14.2762
14.238
14.2353
14.2272
14.2222
14.2116
14.1935
14.1689
14.1398
14.1072
14.0708
14.0305
14.28
14.2477
14.2388
14.2301
14.2237
14.2129
14.1944
14.1695
14.1405
14.1085
14.073
14.0335
14.2873
14.2604
14.2425
14.2306
14.2218
14.2109
14.1927
14.1683
14.1404
14.1099
14.0762
14.0384
14.2971
14.2723
14.2467
14.2287
14.2167
14.2051
14.1875
14.1648
14.1394
14.1117
14.0812
14.0466
14.308
14.2818
14.2497
14.2278
14.2131
14.1997
14.1822
14.1612
14.1381
14.113
14.085
14.0532
13.907
13.8657
13.8191
13.7685
13.7127
13.6548
13.6004
13.5588
13.5402
13.5462
13.5755
13.495
13.9368
13.8939
13.845
13.7902
13.7278
13.6604
13.5937
13.5374
13.5025
13.488
13.5162
13.5046
13.9563
13.9109
13.8585
13.7987
13.7293
13.653
13.5761
13.5096
13.4669
13.4511
13.4767
13.4959
13.9684
13.9203
13.8642
13.7993
13.7238
13.6406
13.557
13.4859
13.4428
13.4327
13.4599
13.4935
13.9753
13.925
13.8656
13.7964
13.7163
13.6286
13.5418
13.4706
13.4306
13.4269
13.4596
13.5012
13.9793
13.9273
13.8653
13.793
13.7098
13.6198
13.5325
13.4637
13.4285
13.4314
13.4717
13.5167
13.9819
13.9288
13.8653
13.791
13.7061
13.6155
13.5292
13.4639
13.4336
13.4427
13.4901
13.5371
13.9844
13.9308
13.8668
13.7916
13.7063
13.6159
13.5312
13.4695
13.4434
13.458
13.5113
13.5587
13.988
13.9348
13.8711
13.7961
13.711
13.6212
13.5376
13.4787
13.4551
13.4739
13.531
13.5788
13.9948
13.9432
13.8809
13.8069
13.7224
13.6327
13.5486
13.4906
13.4662
13.4865
13.5455
13.5948
14.0063
13.9581
13.8989
13.8269
13.7434
13.6528
13.5659
13.5054
13.4756
13.4947
13.556
13.6034
14.0162
13.9715
13.9161
13.8477
13.7667
13.6768
13.5901
13.5194
13.4877
13.5039
13.5622
13.6051
14.4435
14.2097
14.151
14.1436
14.135
14.1214
14.1027
14.0803
14.0538
14.027
13.9891
13.954
14.4308
14.265
14.1847
14.171
14.1617
14.1499
14.1331
14.1116
14.0851
14.0565
14.0192
13.9822
14.3908
14.2649
14.2055
14.1898
14.1815
14.1705
14.1545
14.133
14.1061
14.0762
14.0393
14.0012
14.3492
14.2525
14.2176
14.2026
14.1959
14.1853
14.1695
14.1475
14.1201
14.0891
14.0523
14.0134
14.3146
14.2419
14.2246
14.2116
14.2062
14.1959
14.1797
14.1572
14.1292
14.0973
14.0604
14.0208
14.2909
14.2353
14.229
14.2182
14.2136
14.2034
14.1867
14.1634
14.1348
14.1024
14.0655
14.0253
14.279
14.2339
14.2324
14.2234
14.2189
14.2086
14.1912
14.1671
14.1381
14.1055
14.0687
14.0282
14.2765
14.2383
14.2356
14.2275
14.2225
14.2118
14.1938
14.1691
14.1399
14.1074
14.071
14.0307
14.2804
14.248
14.239
14.2304
14.224
14.2131
14.1946
14.1697
14.1407
14.1087
14.0732
14.0336
14.2877
14.2607
14.2428
14.2309
14.2221
14.2111
14.193
14.1685
14.1406
14.1101
14.0764
14.0386
14.2974
14.2727
14.247
14.2289
14.2169
14.2053
14.1877
14.165
14.1396
14.1119
14.0813
14.0468
14.3083
14.2821
14.25
14.2281
14.2133
14.1999
14.1824
14.1614
14.1383
14.1132
14.0851
14.0534
13.9072
13.8659
13.8193
13.7687
13.713
13.6552
13.6008
13.5592
13.5406
13.5466
13.5759
13.4953
13.937
13.8941
13.8452
13.7905
13.728
13.6607
13.594
13.5378
13.5029
13.4884
13.5165
13.5049
13.9565
13.911
13.8587
13.7989
13.7296
13.6533
13.5765
13.51
13.4673
13.4514
13.4771
13.4963
13.9685
13.9205
13.8644
13.7995
13.7241
13.6409
13.5574
13.4863
13.4432
13.4331
13.4602
13.4939
13.9755
13.9252
13.8657
13.7966
13.7165
13.6289
13.5421
13.4709
13.431
13.4273
13.4599
13.5015
13.9794
13.9274
13.8655
13.7932
13.71
13.6201
13.5329
13.464
13.4288
13.4317
13.472
13.517
13.982
13.9289
13.8655
13.7912
13.7064
13.6158
13.5295
13.4643
13.4339
13.443
13.4904
13.5374
13.9845
13.931
13.867
13.7918
13.7065
13.6162
13.5315
13.4698
13.4437
13.4583
13.5116
13.559
13.9882
13.935
13.8713
13.7963
13.7112
13.6215
13.5379
13.479
13.4555
13.4742
13.5313
13.579
13.9949
13.9433
13.8811
13.8071
13.7226
13.633
13.5489
13.4909
13.4666
13.4868
13.5458
13.595
14.0065
13.9582
13.8991
13.8272
13.7436
13.653
13.5662
13.5057
13.4759
13.495
13.5562
13.6036
14.0163
13.9717
13.9163
13.848
13.7669
13.677
13.5904
13.5197
13.488
13.5042
13.5624
13.6053
14.4439
14.21
14.1512
14.1438
14.1353
14.1217
14.103
14.0807
14.0542
14.0274
13.9894
13.9544
14.4312
14.2653
14.1849
14.1712
14.162
14.1501
14.1334
14.1119
14.0854
14.0569
14.0196
13.9825
14.3911
14.2651
14.2057
14.19
14.1818
14.1708
14.1548
14.1333
14.1065
14.0766
14.0397
14.0016
14.3494
14.2527
14.2178
14.2028
14.1961
14.1856
14.1698
14.1478
14.1204
14.0894
14.0526
14.0137
14.3148
14.2421
14.2248
14.2118
14.2064
14.1961
14.18
14.1575
14.1295
14.0977
14.0608
14.0212
14.2911
14.2355
14.2292
14.2184
14.2139
14.2036
14.187
14.1637
14.1352
14.1027
14.0658
14.0256
14.2793
14.2341
14.2326
14.2236
14.2192
14.2088
14.1915
14.1674
14.1385
14.1058
14.069
14.0286
14.2768
14.2385
14.2358
14.2277
14.2227
14.2121
14.1941
14.1694
14.1403
14.1077
14.0713
14.031
14.2806
14.2482
14.2393
14.2306
14.2242
14.2134
14.1949
14.17
14.141
14.109
14.0735
14.034
14.288
14.2609
14.2431
14.2311
14.2223
14.2114
14.1933
14.1689
14.1409
14.1104
14.0767
14.0389
14.2978
14.2729
14.2472
14.2292
14.2172
14.2056
14.1881
14.1653
14.1399
14.1123
14.0817
14.0471
14.3086
14.2824
14.2502
14.2284
14.2136
14.2002
14.1827
14.1617
14.1387
14.1135
14.0855
14.0537
13.9076
13.8663
13.8197
13.7691
13.7133
13.6555
13.6012
13.5595
13.541
13.547
13.5763
13.4959
13.9374
13.8944
13.8456
13.7908
13.7284
13.661
13.5944
13.5382
13.5033
13.4888
13.517
13.5054
13.9568
13.9114
13.8591
13.7992
13.7299
13.6536
13.5768
13.5104
13.4678
13.4519
13.4776
13.4968
13.9689
13.9208
13.8647
13.7998
13.7244
13.6412
13.5577
13.4867
13.4437
13.4336
13.4608
13.4944
13.9759
13.9255
13.8661
13.7969
13.7168
13.6292
13.5425
13.4713
13.4315
13.4278
13.4604
13.502
13.9798
13.9278
13.8658
13.7935
13.7103
13.6204
13.5332
13.4645
13.4293
13.4322
13.4726
13.5175
13.9824
13.9292
13.8658
13.7915
13.7067
13.6161
13.5299
13.4647
13.4345
13.4436
13.4909
13.5379
13.9849
13.9313
13.8673
13.7921
13.7068
13.6165
13.5319
13.4703
13.4442
13.4589
13.5121
13.5595
13.9885
13.9353
13.8716
13.7966
13.7115
13.6218
13.5383
13.4795
13.456
13.4748
13.5318
13.5795
13.9953
13.9437
13.8814
13.8074
13.723
13.6333
13.5493
13.4914
13.4671
13.4874
13.5463
13.5955
14.0068
13.9585
13.8994
13.8275
13.7439
13.6534
13.5666
13.5061
13.4764
13.4955
13.5568
13.6041
14.0166
13.972
13.9166
13.8482
13.7672
13.6773
13.5908
13.5202
13.4885
13.5047
13.563
13.6058
14.4431
14.2095
14.1509
14.1435
14.1349
14.1213
14.1026
14.0802
14.0537
14.0269
13.989
13.9538
14.4304
14.2648
14.1846
14.1709
14.1616
14.1498
14.133
14.1115
14.085
14.0564
14.0192
13.982
14.3904
14.2646
14.2053
14.1897
14.1814
14.1704
14.1544
14.1329
14.106
14.0761
14.0393
14.0011
14.3488
14.2523
14.2174
14.2024
14.1957
14.1851
14.1693
14.1474
14.12
14.089
14.0522
14.0133
14.3142
14.2416
14.2244
14.2114
14.206
14.1957
14.1796
14.1571
14.1291
14.0972
14.0604
14.0207
14.2906
14.2351
14.2288
14.218
14.2135
14.2032
14.1865
14.1632
14.1347
14.1023
14.0654
14.0252
14.2787
14.2337
14.2322
14.2232
14.2188
14.2084
14.191
14.167
14.138
14.1054
14.0686
14.0282
14.2762
14.2381
14.2354
14.2273
14.2223
14.2117
14.1936
14.169
14.1398
14.1073
14.0709
14.0307
14.2801
14.2477
14.2388
14.2302
14.2238
14.2129
14.1945
14.1696
14.1406
14.1086
14.0731
14.0336
14.2874
14.2604
14.2426
14.2307
14.2219
14.211
14.1928
14.1684
14.1405
14.11
14.0763
14.0385
14.2971
14.2724
14.2467
14.2287
14.2167
14.2052
14.1876
14.1649
14.1395
14.1118
14.0812
14.0467
14.308
14.2818
14.2497
14.2279
14.2132
14.1998
14.1823
14.1613
14.1382
14.1131
14.085
14.0533
)
;

boundaryField
{
    rotor
    {
        type            zeroGradient;
    }
    stator
    {
        type            zeroGradient;
    }
    front
    {
        type            empty;
    }
    back
    {
        type            empty;
    }
}


// ************************************************************************* //
