/*--------------------------------*- C++ -*----------------------------------*\
| =========                 |                                                 |
| \\      /  F ield         | OpenFOAM: The Open Source CFD Toolbox           |
|  \\    /   O peration     | Version:  v1912                                 |
|   \\  /    A nd           | Website:  www.openfoam.com                      |
|    \\/     M anipulation  |                                                 |
\*---------------------------------------------------------------------------*/
FoamFile
{
    version     2.0;
    format      ascii;
    class       surfaceScalarField;
    location    "300";
    object      phi;
}
// * * * * * * * * * * * * * * * * * * * * * * * * * * * * * * * * * * * * * //

dimensions      [0 3 -1 0 0 0 0];
oriented        oriented;


internalField   nonuniform List<scalar> 
5952
(
5.40502e-06
-5.44648e-06
9.14721e-06
-3.74636e-06
1.194e-05
-2.7897e-06
1.30876e-05
-1.15055e-06
1.2124e-05
9.66622e-07
8.21578e-06
3.91561e-06
1.8923e-06
6.32651e-06
-1.09039e-05
1.28019e-05
-2.62446e-05
1.53408e-05
-3.81057e-05
1.1861e-05
-4.75729e-05
9.46656e-06
6.8908e-06
-5.44651e-05
1.9201e-06
-7.36496e-06
3.49468e-06
-5.32125e-06
2.33494e-06
-1.62917e-06
-1.42485e-06
2.60981e-06
-9.10298e-06
8.6456e-06
-2.06904e-05
1.55047e-05
-3.30062e-05
1.86432e-05
-3.9702e-05
1.9499e-05
-4.23152e-05
1.79542e-05
-4.50898e-05
1.46352e-05
-4.7487e-05
1.18634e-05
9.06109e-06
-4.96583e-05
1.06586e-07
-7.47093e-06
-1.81756e-06
-3.39674e-06
-6.51518e-06
3.06921e-06
-1.47608e-05
1.08559e-05
-2.38917e-05
1.77772e-05
-2.98618e-05
2.1476e-05
-3.33434e-05
2.21254e-05
-3.50261e-05
2.11825e-05
-3.58645e-05
1.87927e-05
-3.69771e-05
1.57476e-05
-3.79942e-05
1.28801e-05
9.96529e-06
-3.88991e-05
-3.34441e-06
-4.12583e-06
-8.14415e-06
1.40335e-06
-1.41204e-05
9.04604e-06
-1.99759e-05
1.67122e-05
-2.40729e-05
2.1875e-05
-2.62327e-05
2.36368e-05
-2.7271e-05
2.31643e-05
-2.76847e-05
2.15968e-05
-2.79431e-05
1.90511e-05
-2.83143e-05
1.61187e-05
-2.86402e-05
1.32058e-05
1.02469e-05
-2.89223e-05
-4.74293e-06
6.17701e-07
-9.93976e-06
6.60064e-06
-1.44641e-05
1.35713e-05
-1.76953e-05
1.99444e-05
-1.92693e-05
2.345e-05
-1.97195e-05
2.40881e-05
-1.96381e-05
2.30834e-05
-1.92124e-05
2.11716e-05
-1.88587e-05
1.86975e-05
-1.86866e-05
1.59465e-05
-1.86158e-05
1.31348e-05
1.0263e-05
-1.86322e-05
-4.94199e-06
5.55974e-06
-9.13932e-06
1.07992e-05
-1.20291e-05
1.64619e-05
-1.33026e-05
2.12194e-05
-1.32559e-05
2.34045e-05
-1.25374e-05
2.33704e-05
-1.15722e-05
2.21191e-05
-1.06135e-05
2.02131e-05
-9.82993e-06
1.79142e-05
-9.27658e-06
1.53931e-05
-8.90948e-06
1.27677e-05
1.00505e-05
-8.69717e-06
-4.32356e-06
9.88489e-06
-7.51379e-06
1.39902e-05
-8.95946e-06
1.79089e-05
-8.65184e-06
2.0913e-05
-7.26484e-06
2.20185e-05
-5.51225e-06
2.16189e-05
-3.78018e-06
2.03876e-05
-2.25397e-06
1.86875e-05
-1.02125e-06
1.66817e-05
-9.51829e-08
1.44672e-05
5.66827e-07
1.21057e-05
9.60834e-06
1.00897e-06
-3.86712e-06
1.37532e-05
-5.97574e-06
1.60998e-05
-5.96785e-06
1.79018e-05
-4.19025e-06
1.91362e-05
-1.56532e-06
1.93943e-05
1.17696e-06
1.88772e-05
3.68924e-06
1.78758e-05
5.82932e-06
1.65478e-05
7.55387e-06
1.49574e-05
8.8801e-06
1.31412e-05
9.86299e-06
1.11229e-05
8.91167e-06
1.05597e-05
-3.32414e-06
1.70781e-05
-4.39838e-06
1.71746e-05
-2.76896e-06
1.62729e-05
4.50862e-07
1.59168e-05
4.23688e-06
1.56087e-05
7.9141e-06
1.52004e-05
1.11776e-05
1.46127e-05
1.39204e-05
1.38054e-05
1.61328e-05
1.27453e-05
1.78573e-05
1.14169e-05
1.91655e-05
9.81485e-06
7.949e-06
2.01283e-05
-3.54571e-06
2.06252e-05
-2.10752e-06
1.57372e-05
2.07072e-06
1.20951e-05
6.84464e-06
1.11433e-05
1.16238e-05
1.083e-05
1.59869e-05
1.08378e-05
1.97515e-05
1.08485e-05
2.28783e-05
1.06788e-05
2.53989e-05
1.0225e-05
2.73783e-05
9.43772e-06
2.89044e-05
8.28895e-06
6.79646e-06
3.0057e-05
2.78056e-07
2.03497e-05
6.24361e-06
9.77274e-06
1.25654e-05
5.77399e-06
1.82686e-05
5.4406e-06
2.32535e-05
5.8456e-06
2.75037e-05
6.58802e-06
3.10633e-05
7.28929e-06
3.39862e-05
7.75634e-06
3.63415e-05
7.86995e-06
3.82022e-05
7.57723e-06
3.96595e-05
6.83192e-06
5.67034e-06
4.07858e-05
2.03648e-05
-1.46408e-08
2.87102e-05
1.42816e-06
3.39705e-05
5.14257e-07
3.81078e-05
1.30384e-06
4.13509e-05
2.60306e-06
4.40178e-05
3.92159e-06
4.62582e-05
5.04934e-06
4.81238e-05
5.89107e-06
4.96505e-05
6.34354e-06
5.08715e-05
6.35647e-06
5.18533e-05
5.8503e-06
5.26391e-05
4.88475e-06
-5.94796e-05
5.01405e-06
-6.23463e-05
2.86564e-06
-6.34919e-05
1.14574e-06
-6.28154e-05
-6.77126e-07
-6.05191e-05
-2.29589e-06
-5.64296e-05
-4.08984e-06
-5.04975e-05
-5.93159e-06
-4.25632e-05
-7.93386e-06
-3.25198e-05
-1.0043e-05
-2.05269e-05
-1.19923e-05
-8.43762e-06
-1.20881e-05
-8.43717e-06
-5.09602e-05
6.31567e-06
-5.17596e-05
3.66415e-06
-5.18198e-05
1.20597e-06
-5.12739e-05
-1.22339e-06
-4.98807e-05
-3.68885e-06
-4.75915e-05
-6.37909e-06
-4.41698e-05
-9.35282e-06
-3.94083e-05
-1.26949e-05
-3.30337e-05
-1.64169e-05
-2.48248e-05
-2.02006e-05
-1.38094e-05
-2.31026e-05
-2.22463e-05
-3.96304e-05
7.0466e-06
-4.01487e-05
4.18191e-06
-4.03103e-05
1.36744e-06
-4.00024e-05
-1.53157e-06
-3.90762e-05
-4.61489e-06
-3.74639e-05
-7.99131e-06
-3.50384e-05
-1.17779e-05
-3.16981e-05
-1.60347e-05
-2.7321e-05
-2.07934e-05
-2.13894e-05
-2.61317e-05
-1.29958e-05
-3.14955e-05
-3.52417e-05
-2.91669e-05
7.29088e-06
-2.93159e-05
4.33062e-06
-2.92611e-05
1.31244e-06
-2.89267e-05
-1.86612e-06
-2.82403e-05
-5.3012e-06
-2.71425e-05
-9.08902e-06
-2.55467e-05
-1.33734e-05
-2.33524e-05
-1.82287e-05
-2.03776e-05
-2.37678e-05
-1.61597e-05
-3.0349e-05
-9.83754e-06
-3.78169e-05
-4.50791e-05
-1.86899e-05
7.34835e-06
-1.87264e-05
4.36682e-06
-1.86777e-05
1.26358e-06
-1.84992e-05
-2.04474e-06
-1.8152e-05
-5.64828e-06
-1.75928e-05
-9.64821e-06
-1.67688e-05
-1.4197e-05
-1.5607e-05
-1.93902e-05
-1.39116e-05
-2.54625e-05
-1.15131e-05
-3.27473e-05
-7.53617e-06
-4.17936e-05
-5.26152e-05
-8.59259e-06
7.2436e-06
-8.54748e-06
4.32155e-06
-8.52097e-06
1.23696e-06
-8.48735e-06
-2.07831e-06
-8.42955e-06
-5.70605e-06
-8.33137e-06
-9.74605e-06
-8.19816e-06
-1.433e-05
-7.97925e-06
-1.96085e-05
-7.59026e-06
-2.58516e-05
-6.84384e-06
-3.34934e-05
-4.99475e-06
-4.36425e-05
-5.761e-05
1.27891e-06
6.97362e-06
1.41632e-06
4.18407e-06
1.44798e-06
1.2054e-06
1.38323e-06
-2.01349e-06
1.21643e-06
-5.53887e-06
9.29031e-07
-9.45837e-06
4.89536e-07
-1.38899e-05
-1.18783e-07
-1.90001e-05
-8.84978e-07
-2.50847e-05
-1.70714e-06
-3.2671e-05
-2.17103e-06
-4.31785e-05
-5.97807e-05
1.10243e-05
6.50909e-06
1.12944e-05
3.91406e-06
1.13888e-05
1.11118e-06
1.13043e-05
-1.92867e-06
1.1015e-05
-5.24919e-06
1.04713e-05
-8.91406e-06
9.5952e-06
-1.30132e-05
8.29272e-06
-1.76968e-05
6.45816e-06
-2.32497e-05
4.04686e-06
-3.02591e-05
1.39036e-06
-4.0521e-05
-5.83896e-05
2.08111e-05
5.82639e-06
2.12542e-05
3.47114e-06
2.14736e-05
8.9209e-07
2.14582e-05
-1.91274e-06
2.1167e-05
-4.95737e-06
2.05244e-05
-8.27075e-06
1.94021e-05
-1.18902e-05
1.76213e-05
-1.59153e-05
1.49272e-05
-2.05548e-05
1.10427e-05
-2.63732e-05
6.00469e-06
-3.54817e-05
-5.23844e-05
3.09148e-05
4.96873e-06
3.15212e-05
2.86498e-06
3.18934e-05
5.20308e-07
3.20157e-05
-2.03464e-06
3.18374e-05
-4.77832e-06
3.12655e-05
-7.69817e-06
3.01275e-05
-1.07513e-05
2.8164e-05
-1.3951e-05
2.49521e-05
-1.73416e-05
1.99694e-05
-2.13899e-05
1.23516e-05
-2.78628e-05
-4.00311e-05
4.16695e-05
4.0852e-06
4.23487e-05
2.18602e-06
4.28418e-05
2.76187e-08
4.3131e-05
-2.32335e-06
4.31581e-05
-4.80478e-06
4.28205e-05
-7.35977e-06
4.19179e-05
-9.84774e-06
4.01494e-05
-1.21815e-05
3.69407e-05
-1.41325e-05
3.15256e-05
-1.59733e-05
2.13477e-05
-1.76834e-05
-1.86828e-05
5.33269e-05
3.39752e-06
5.39348e-05
1.57835e-06
5.44776e-05
-5.14957e-07
5.49318e-05
-2.77711e-06
5.52297e-05
-5.10227e-06
5.52613e-05
-7.39076e-06
5.4822e-05
-9.40792e-06
5.36349e-05
-1.09938e-05
5.11547e-05
-1.16511e-05
4.63934e-05
-1.12123e-05
3.56108e-05
-6.89998e-06
1.6929e-05
5.44502e-06
-5.44594e-06
9.17458e-06
-3.7353e-06
1.19611e-05
-2.78637e-06
1.31076e-05
-1.15176e-06
1.21491e-05
9.58811e-07
8.24967e-06
3.90513e-06
1.93743e-06
6.31462e-06
-1.08287e-05
1.27724e-05
-2.61788e-05
1.53508e-05
-3.80553e-05
1.18773e-05
-4.75311e-05
9.47582e-06
6.90001e-06
-5.44317e-05
1.91817e-06
-7.36501e-06
3.50799e-06
-5.32696e-06
2.35782e-06
-1.63839e-06
-1.39083e-06
2.5946e-06
-9.05001e-06
8.61723e-06
-2.06297e-05
1.5486e-05
-3.29555e-05
1.8641e-05
-3.96838e-05
1.95021e-05
-4.23011e-05
1.79684e-05
-4.50727e-05
1.4649e-05
-4.74712e-05
1.18743e-05
9.07136e-06
-4.96431e-05
1.16495e-07
-7.4812e-06
-1.79483e-06
-3.41642e-06
-6.47753e-06
3.04384e-06
-1.47133e-05
1.08299e-05
-2.38583e-05
1.77623e-05
-2.98442e-05
2.14727e-05
-3.33335e-05
2.21307e-05
-3.50212e-05
2.11905e-05
-3.58586e-05
1.88058e-05
-3.69691e-05
1.57595e-05
-3.79857e-05
1.28906e-05
9.97503e-06
-3.88899e-05
-3.33467e-06
-4.14632e-06
-8.12611e-06
1.37467e-06
-1.41003e-05
9.01847e-06
-1.99629e-05
1.66927e-05
-2.40679e-05
2.18679e-05
-2.62325e-05
2.3638e-05
-2.72718e-05
2.31705e-05
-2.76854e-05
2.16048e-05
-2.79416e-05
1.9062e-05
-2.83112e-05
1.61291e-05
-2.86365e-05
1.32154e-05
1.02559e-05
-2.89177e-05
-4.73718e-06
5.90409e-07
-9.93397e-06
6.57245e-06
-1.4463e-05
1.35474e-05
-1.76993e-05
1.99301e-05
-1.9276e-05
2.34455e-05
-1.97265e-05
2.40892e-05
-1.96436e-05
2.30885e-05
-1.92166e-05
2.11779e-05
-1.88601e-05
1.87058e-05
-1.86861e-05
1.59549e-05
-1.86138e-05
1.31431e-05
1.02708e-05
-1.86292e-05
-4.94219e-06
5.53474e-06
-9.14403e-06
1.07739e-05
-1.20373e-05
1.64422e-05
-1.3314e-05
2.12077e-05
-1.32675e-05
2.34001e-05
-1.25473e-05
2.33704e-05
-1.158e-05
2.21217e-05
-1.06187e-05
2.02176e-05
-9.83292e-06
1.79201e-05
-9.27738e-06
1.53998e-05
-8.90898e-06
1.27745e-05
1.00574e-05
-8.6955e-06
-4.32898e-06
9.8649e-06
-7.52322e-06
1.39698e-05
-8.97293e-06
1.78925e-05
-8.66652e-06
2.09025e-05
-7.27818e-06
2.20132e-05
-5.52355e-06
2.16168e-05
-3.78868e-06
2.03879e-05
-2.26018e-06
1.86896e-05
-1.02506e-06
1.66855e-05
-9.72376e-08
1.44721e-05
5.66183e-07
1.21113e-05
9.61434e-06
1.00927e-06
-3.87476e-06
1.37414e-05
-5.9884e-06
1.60841e-05
-5.98342e-06
1.78885e-05
-4.20603e-06
1.9126e-05
-1.57942e-06
1.93875e-05
1.16522e-06
1.8873e-05
3.68005e-06
1.78737e-05
5.82248e-06
1.65477e-05
7.54916e-06
1.49593e-05
8.87706e-06
1.31445e-05
9.86119e-06
1.11274e-05
8.91689e-06
1.05587e-05
-3.33281e-06
1.70757e-05
-4.41093e-06
1.71632e-05
-2.78383e-06
1.62619e-05
4.35957e-07
1.59068e-05
4.2234e-06
1.56006e-05
7.90272e-06
1.51942e-05
1.11685e-05
1.46085e-05
1.39133e-05
1.38034e-05
1.61276e-05
1.27454e-05
1.78535e-05
1.14189e-05
1.91627e-05
9.81832e-06
7.95352e-06
2.01262e-05
-3.55119e-06
2.06286e-05
-2.11636e-06
1.57292e-05
2.05998e-06
1.20862e-05
6.83349e-06
1.11338e-05
1.16134e-05
1.08212e-05
1.59778e-05
1.08304e-05
1.97438e-05
1.08429e-05
2.28722e-05
1.06755e-05
2.5394e-05
1.02239e-05
2.73743e-05
9.43876e-06
2.89011e-05
8.29172e-06
6.80056e-06
3.00542e-05
2.78686e-07
2.0352e-05
6.24044e-06
9.76845e-06
1.2561e-05
5.76611e-06
1.82638e-05
5.43161e-06
2.32487e-05
5.8369e-06
2.74992e-05
6.58047e-06
3.10591e-05
7.28356e-06
3.39823e-05
7.7527e-06
3.6338e-05
7.86858e-06
3.81989e-05
7.57808e-06
3.96563e-05
6.83457e-06
5.67439e-06
4.07827e-05
2.03681e-05
-1.49301e-08
2.87144e-05
1.42292e-06
3.39739e-05
5.07587e-07
3.81099e-05
1.29618e-06
4.13518e-05
2.59552e-06
4.40177e-05
3.91506e-06
4.62574e-05
5.04445e-06
4.81224e-05
5.88816e-06
4.96485e-05
6.34283e-06
5.0869e-05
6.35786e-06
5.18504e-05
5.85345e-06
5.26358e-05
4.88914e-06
-5.94516e-05
5.0201e-06
-6.23232e-05
2.87107e-06
-6.3473e-05
1.15012e-06
-6.27998e-05
-6.73572e-07
-6.05064e-05
-2.29301e-06
-5.64192e-05
-4.08746e-06
-5.04891e-05
-5.92971e-06
-4.25565e-05
-7.93241e-06
-3.25143e-05
-1.00419e-05
-2.05224e-05
-1.19916e-05
-8.43444e-06
-1.20873e-05
-8.43423e-06
-5.09469e-05
6.32378e-06
-5.17476e-05
3.67115e-06
-5.1809e-05
1.21166e-06
-5.12643e-05
-1.21862e-06
-4.98724e-05
-3.68478e-06
-4.75844e-05
-6.37559e-06
-4.41639e-05
-9.34986e-06
-3.94037e-05
-1.26924e-05
-3.30304e-05
-1.64149e-05
-2.48227e-05
-2.0199e-05
-1.38088e-05
-2.31008e-05
-2.22429e-05
-3.96216e-05
7.05512e-06
-4.01402e-05
4.18929e-06
-4.03024e-05
1.37376e-06
-3.99953e-05
-1.52606e-06
-3.907e-05
-4.61011e-06
-3.74586e-05
-7.98712e-06
-3.5034e-05
-1.17743e-05
-3.16946e-05
-1.60316e-05
-2.73187e-05
-2.07907e-05
-2.13882e-05
-2.61293e-05
-1.29957e-05
-3.1493e-05
-3.52384e-05
-2.91617e-05
7.29877e-06
-2.93103e-05
4.3376e-06
-2.92555e-05
1.31869e-06
-2.89213e-05
-1.86048e-06
-2.82354e-05
-5.29608e-06
-2.71382e-05
-9.08439e-06
-2.55432e-05
-1.33693e-05
-2.33497e-05
-1.8225e-05
-2.03757e-05
-2.37645e-05
-1.61586e-05
-3.03462e-05
-9.83706e-06
-3.78141e-05
-4.50755e-05
-1.86862e-05
7.35557e-06
-1.87223e-05
4.37344e-06
-1.86735e-05
1.26971e-06
-1.84951e-05
-2.03899e-06
-1.81484e-05
-5.64297e-06
-1.75895e-05
-9.64318e-06
-1.67663e-05
-1.41925e-05
-1.5605e-05
-1.9386e-05
-1.39104e-05
-2.54589e-05
-1.15124e-05
-3.27437e-05
-7.53642e-06
-4.17905e-05
-5.26118e-05
-8.59031e-06
7.2502e-06
-8.54486e-06
4.32788e-06
-8.5182e-06
1.24305e-06
-8.48474e-06
-2.07254e-06
-8.42705e-06
-5.70045e-06
-8.32938e-06
-9.74084e-06
-8.19649e-06
-1.4325e-05
-7.97824e-06
-1.96041e-05
-7.58938e-06
-2.58473e-05
-6.84392e-06
-3.34899e-05
-4.99473e-06
-4.36391e-05
-5.76069e-05
1.2798e-06
6.97973e-06
1.41759e-06
4.19019e-06
1.44934e-06
1.21141e-06
1.38467e-06
-2.00756e-06
1.21764e-06
-5.53319e-06
9.30108e-07
-9.45286e-06
4.90214e-07
-1.38848e-05
-1.18204e-07
-1.89952e-05
-8.85066e-07
-2.50805e-05
-1.70721e-06
-3.2667e-05
-2.17171e-06
-4.31753e-05
-5.97783e-05
1.10239e-05
6.51476e-06
1.12943e-05
3.91992e-06
1.13889e-05
1.11713e-06
1.13045e-05
-1.9228e-06
1.10153e-05
-5.2434e-06
1.04714e-05
-8.90853e-06
9.59524e-06
-1.3008e-05
8.29255e-06
-1.7692e-05
6.45802e-06
-2.32452e-05
4.04627e-06
-3.02552e-05
1.38983e-06
-4.0518e-05
-5.83877e-05
2.08096e-05
5.83162e-06
2.1253e-05
3.47674e-06
2.14727e-05
8.97889e-07
2.14574e-05
-1.90696e-06
2.11663e-05
-4.95167e-06
2.05238e-05
-8.2653e-06
1.94015e-05
-1.18849e-05
1.76209e-05
-1.59104e-05
1.49266e-05
-2.05502e-05
1.10418e-05
-2.63694e-05
6.00418e-06
-3.54784e-05
-5.2383e-05
3.09124e-05
4.97363e-06
3.15191e-05
2.87039e-06
3.18915e-05
5.25883e-07
3.20142e-05
-2.02901e-06
3.1836e-05
-4.77289e-06
3.12644e-05
-7.69291e-06
3.01266e-05
-1.07463e-05
2.81633e-05
-1.39463e-05
2.49513e-05
-1.73372e-05
1.99689e-05
-2.13855e-05
1.23509e-05
-2.78601e-05
-4.00297e-05
4.16665e-05
4.09003e-06
4.2346e-05
2.19132e-06
4.28393e-05
3.30227e-08
4.31289e-05
-2.31799e-06
4.31563e-05
-4.79967e-06
4.28191e-05
-7.3549e-06
4.19168e-05
-9.84319e-06
4.01487e-05
-1.21771e-05
3.69404e-05
-1.4128e-05
3.15249e-05
-1.59696e-05
2.13477e-05
-1.76799e-05
-1.86814e-05
5.33236e-05
3.40258e-06
5.39315e-05
1.58361e-06
5.44747e-05
-5.0972e-07
5.49292e-05
-2.77216e-06
5.52276e-05
-5.09762e-06
5.52597e-05
-7.38652e-06
5.48211e-05
-9.40392e-06
5.36345e-05
-1.099e-05
5.11544e-05
-1.16474e-05
4.63937e-05
-1.12079e-05
3.56107e-05
-6.89712e-06
1.6931e-05
5.44276e-06
-5.44231e-06
9.16807e-06
-3.73014e-06
1.19509e-05
-2.78087e-06
1.30912e-05
-1.14446e-06
1.21231e-05
9.71497e-07
8.20962e-06
3.92101e-06
1.88569e-06
6.32906e-06
-1.09128e-05
1.28054e-05
-2.6247e-05
1.53356e-05
-3.81022e-05
1.18559e-05
-4.75658e-05
9.46361e-06
6.88847e-06
-5.44551e-05
1.91429e-06
-7.35617e-06
3.49387e-06
-5.31097e-06
2.3338e-06
-1.62129e-06
-1.42691e-06
2.61546e-06
-9.10595e-06
8.6511e-06
-2.06914e-05
1.55082e-05
-3.30032e-05
1.8642e-05
-3.96919e-05
1.94956e-05
-4.23044e-05
1.79487e-05
-4.50792e-05
1.46307e-05
-4.74759e-05
1.18601e-05
9.0586e-06
-4.96467e-05
1.0768e-07
-7.46396e-06
-1.81563e-06
-3.38828e-06
-6.5142e-06
3.07718e-06
-1.47615e-05
1.08626e-05
-2.38904e-05
1.77805e-05
-2.98561e-05
2.14748e-05
-3.33351e-05
2.21217e-05
-3.50164e-05
2.11778e-05
-3.58547e-05
1.87872e-05
-3.69672e-05
1.57432e-05
-3.79842e-05
1.28769e-05
9.96306e-06
-3.88892e-05
-3.34303e-06
-4.1214e-06
-8.14348e-06
1.41154e-06
-1.412e-05
9.0538e-06
-1.99738e-05
1.67168e-05
-2.40677e-05
2.1875e-05
-2.62256e-05
2.36336e-05
-2.72626e-05
2.31595e-05
-2.76757e-05
2.15916e-05
-2.79343e-05
1.9046e-05
-2.83056e-05
1.61146e-05
-2.86317e-05
1.32029e-05
1.0245e-05
-2.8914e-05
-4.74391e-06
6.216e-07
-9.94018e-06
6.60753e-06
-1.4463e-05
1.35771e-05
-1.76918e-05
1.99463e-05
-1.92638e-05
2.34478e-05
-1.97129e-05
2.40837e-05
-1.96309e-05
2.30782e-05
-1.92052e-05
2.11666e-05
-1.88518e-05
1.8693e-05
-1.868e-05
1.5943e-05
-1.86095e-05
1.31323e-05
1.02616e-05
-1.86261e-05
-4.94293e-06
5.56357e-06
-9.13949e-06
1.08047e-05
-1.20274e-05
1.64656e-05
-1.3299e-05
2.12191e-05
-1.32512e-05
2.34011e-05
-1.25321e-05
2.33656e-05
-1.1567e-05
2.21141e-05
-1.06084e-05
2.02086e-05
-9.82517e-06
1.79104e-05
-9.27203e-06
1.53902e-05
-8.90513e-06
1.27657e-05
1.00495e-05
-8.69298e-06
-4.32415e-06
9.88854e-06
-7.51338e-06
1.39942e-05
-8.95737e-06
1.79107e-05
-8.6486e-06
2.09114e-05
-7.26108e-06
2.20146e-05
-5.50857e-06
2.16141e-05
-3.7767e-06
2.0383e-05
-2.25074e-06
1.86835e-05
-1.01827e-06
1.66784e-05
-9.23873e-08
1.44648e-05
5.69471e-07
1.21041e-05
9.60769e-06
1.0115e-06
-3.86711e-06
1.37563e-05
-5.97448e-06
1.61024e-05
-5.96526e-06
1.79021e-05
-4.18713e-06
1.9134e-05
-1.5624e-06
1.93904e-05
1.17953e-06
1.88728e-05
3.69147e-06
1.78716e-05
5.83127e-06
1.65442e-05
7.55557e-06
1.49546e-05
8.88162e-06
1.31392e-05
9.86436e-06
1.11218e-05
8.91137e-06
1.0561e-05
-3.32338e-06
1.70803e-05
-4.39638e-06
1.71759e-05
-2.76602e-06
1.62721e-05
4.53931e-07
1.59143e-05
4.23955e-06
1.56051e-05
7.91629e-06
1.51963e-05
1.11794e-05
1.46088e-05
1.39218e-05
1.38022e-05
1.61339e-05
1.27428e-05
1.78581e-05
1.14154e-05
1.91661e-05
9.81414e-06
7.94907e-06
2.01287e-05
-3.54446e-06
2.0626e-05
-2.10515e-06
1.57371e-05
2.07385e-06
1.20935e-05
6.84789e-06
1.11405e-05
1.16267e-05
1.08264e-05
1.59892e-05
1.0834e-05
1.97533e-05
1.0845e-05
2.28796e-05
1.0676e-05
2.53998e-05
1.02231e-05
2.73787e-05
9.43669e-06
2.89045e-05
8.28876e-06
6.79699e-06
3.00568e-05
2.79121e-07
2.03491e-05
6.24628e-06
9.77089e-06
1.25687e-05
5.77155e-06
1.82721e-05
5.4374e-06
2.32567e-05
5.8422e-06
2.75063e-05
6.58461e-06
3.10652e-05
7.28636e-06
3.39874e-05
7.75413e-06
3.63421e-05
7.86866e-06
3.82023e-05
7.57684e-06
3.96591e-05
6.83235e-06
5.67141e-06
4.0785e-05
2.03659e-05
-1.59141e-08
2.8713e-05
1.42463e-06
3.39737e-05
5.1121e-07
3.81109e-05
1.30059e-06
4.13536e-05
2.59984e-06
4.40198e-05
3.91864e-06
4.62595e-05
5.04697e-06
4.81244e-05
5.88954e-06
4.96504e-05
6.34295e-06
5.08708e-05
6.35678e-06
5.18521e-05
5.85136e-06
5.26375e-05
4.88634e-06
-5.94681e-05
5.01284e-06
-6.23339e-05
2.86502e-06
-6.34794e-05
1.14556e-06
-6.28031e-05
-6.76787e-07
-6.05075e-05
-2.29537e-06
-5.64189e-05
-4.08891e-06
-5.04881e-05
-5.93059e-06
-4.25553e-05
-7.93253e-06
-3.25136e-05
-1.00416e-05
-2.05227e-05
-1.19906e-05
-8.43581e-06
-1.20863e-05
-8.4356e-06
-5.09485e-05
6.31438e-06
-5.17478e-05
3.66363e-06
-5.18084e-05
1.20612e-06
-5.12629e-05
-1.22267e-06
-4.98706e-05
-3.68765e-06
-4.75822e-05
-6.37743e-06
-4.41617e-05
-9.35076e-06
-3.94015e-05
-1.26924e-05
-3.30286e-05
-1.64141e-05
-2.48214e-05
-2.01975e-05
-1.38079e-05
-2.30994e-05
-2.22433e-05
-3.96205e-05
7.04541e-06
-4.0139e-05
4.18159e-06
-4.03009e-05
1.3679e-06
-3.99935e-05
-1.53038e-06
-3.90681e-05
-4.61306e-06
-3.74567e-05
-7.98888e-06
-3.50322e-05
-1.1775e-05
-3.1693e-05
-1.60314e-05
-2.73171e-05
-2.07897e-05
-2.13867e-05
-2.61277e-05
-1.29943e-05
-3.14912e-05
-3.52374e-05
-2.91588e-05
7.29003e-06
-2.93082e-05
4.33067e-06
-2.92538e-05
1.31329e-06
-2.89198e-05
-1.86451e-06
-2.8234e-05
-5.29888e-06
-2.71369e-05
-9.08603e-06
-2.55419e-05
-1.33698e-05
-2.33484e-05
-1.82246e-05
-2.03746e-05
-2.37632e-05
-1.61577e-05
-3.03441e-05
-9.83652e-06
-3.78118e-05
-4.50738e-05
-1.8684e-05
7.34784e-06
-1.87207e-05
4.36718e-06
-1.86723e-05
1.26473e-06
-1.8494e-05
-2.04283e-06
-1.81473e-05
-5.64565e-06
-1.75884e-05
-9.64485e-06
-1.6765e-05
-1.4193e-05
-1.56038e-05
-1.93856e-05
-1.39092e-05
-2.54573e-05
-1.15114e-05
-3.27416e-05
-7.53546e-06
-4.17877e-05
-5.26092e-05
-8.58855e-06
7.24344e-06
-8.54358e-06
4.32219e-06
-8.51722e-06
1.23835e-06
-8.48376e-06
-2.07621e-06
-8.42612e-06
-5.70322e-06
-8.32818e-06
-9.74249e-06
-8.19526e-06
-1.43257e-05
-7.97683e-06
-1.96035e-05
-7.58844e-06
-2.58459e-05
-6.84267e-06
-3.34872e-05
-4.9942e-06
-4.36361e-05
-5.76036e-05
1.28133e-06
6.97377e-06
1.41866e-06
4.18496e-06
1.45026e-06
1.20696e-06
1.38549e-06
-2.01128e-06
1.21866e-06
-5.53599e-06
9.31225e-07
-9.45474e-06
4.91597e-07
-1.38855e-05
-1.16987e-07
-1.89948e-05
-8.83613e-07
-2.50786e-05
-1.70631e-06
-3.26644e-05
-2.1706e-06
-4.31718e-05
-5.97739e-05
1.10254e-05
6.50953e-06
1.12955e-05
3.91515e-06
1.13898e-05
1.11285e-06
1.13054e-05
-1.92644e-06
1.10162e-05
-5.24637e-06
1.04726e-05
-8.91054e-06
9.59655e-06
-1.30089e-05
8.294e-06
-1.76915e-05
6.4592e-06
-2.32434e-05
4.0475e-06
-3.02522e-05
1.39064e-06
-4.0514e-05
-5.83826e-05
2.08114e-05
5.82712e-06
2.12544e-05
3.47245e-06
2.14737e-05
8.93878e-07
2.14583e-05
-1.91052e-06
2.11672e-05
-4.95468e-06
2.05249e-05
-8.26743e-06
1.94028e-05
-1.1886e-05
1.76221e-05
-1.59101e-05
1.4928e-05
-2.05485e-05
1.10432e-05
-2.63661e-05
6.00488e-06
-3.54745e-05
-5.23772e-05
3.09144e-05
4.96983e-06
3.15206e-05
2.86654e-06
3.18927e-05
5.2223e-07
3.20151e-05
-2.03242e-06
3.18369e-05
-4.77578e-06
3.12653e-05
-7.69511e-06
3.01276e-05
-1.07474e-05
2.81643e-05
-1.3946e-05
2.49525e-05
-1.73355e-05
1.99698e-05
-2.13828e-05
1.23517e-05
-2.78553e-05
-4.00238e-05
4.16685e-05
4.08668e-06
4.23475e-05
2.18782e-06
4.28405e-05
2.96524e-08
4.31298e-05
-2.32115e-06
4.31571e-05
-4.80237e-06
4.28197e-05
-7.35693e-06
4.19173e-05
-9.84416e-06
4.0149e-05
-1.21768e-05
3.69406e-05
-1.41266e-05
3.15257e-05
-1.59664e-05
2.13477e-05
-1.76759e-05
-1.86756e-05
5.33251e-05
3.39933e-06
5.39329e-05
1.5803e-06
5.44758e-05
-5.12932e-07
5.49301e-05
-2.77503e-06
5.52282e-05
-5.10004e-06
5.52599e-05
-7.38809e-06
5.48208e-05
-9.40447e-06
5.36337e-05
-1.09892e-05
5.11536e-05
-1.16454e-05
4.63926e-05
-1.12056e-05
3.56103e-05
-6.89286e-06
1.69357e-05
5.44562e-06
-5.44638e-06
9.17563e-06
-3.73567e-06
1.19622e-05
-2.78632e-06
1.31086e-05
-1.15161e-06
1.21501e-05
9.58908e-07
8.24945e-06
3.90653e-06
1.93444e-06
6.31749e-06
-1.08369e-05
1.27776e-05
-2.61894e-05
1.53532e-05
-3.80667e-05
1.18782e-05
-4.75433e-05
9.47671e-06
6.90022e-06
-5.44441e-05
1.91891e-06
-7.36606e-06
3.50993e-06
-5.32838e-06
2.36025e-06
-1.6387e-06
-1.38903e-06
2.59551e-06
-9.05052e-06
8.61971e-06
-2.06334e-05
1.54906e-05
-3.29619e-05
1.86467e-05
-3.96902e-05
1.95072e-05
-4.23084e-05
1.79718e-05
-4.50813e-05
1.46511e-05
-4.74803e-05
1.18757e-05
9.07199e-06
-4.96527e-05
1.18175e-07
-7.48383e-06
-1.79177e-06
-3.41912e-06
-6.47387e-06
3.04301e-06
-1.4711e-05
1.08322e-05
-2.38595e-05
1.77684e-05
-2.98486e-05
2.14804e-05
-3.33393e-05
2.21379e-05
-3.50276e-05
2.11963e-05
-3.58655e-05
1.88098e-05
-3.69767e-05
1.57623e-05
-3.79936e-05
1.28924e-05
9.97586e-06
-3.8898e-05
-3.33301e-06
-4.15049e-06
-8.12357e-06
1.37116e-06
-1.40988e-05
9.01874e-06
-1.99642e-05
1.66978e-05
-2.40717e-05
2.18766e-05
-2.62374e-05
2.36469e-05
-2.72773e-05
2.31782e-05
-2.76914e-05
2.1611e-05
-2.79481e-05
1.90664e-05
-2.8318e-05
1.61322e-05
-2.86433e-05
1.32173e-05
1.02567e-05
-2.89245e-05
-4.73589e-06
5.8509e-07
-9.93328e-06
6.56961e-06
-1.44639e-05
1.35493e-05
-1.77021e-05
1.99372e-05
-1.92799e-05
2.34553e-05
-1.9731e-05
2.40987e-05
-1.96485e-05
2.30967e-05
-1.92216e-05
2.11844e-05
-1.88653e-05
1.87106e-05
-1.86915e-05
1.59581e-05
-1.86192e-05
1.3145e-05
1.02716e-05
-1.86345e-05
-4.94191e-06
5.52927e-06
-9.14444e-06
1.07719e-05
-1.20388e-05
1.64453e-05
-1.33165e-05
2.12159e-05
-1.32705e-05
2.34104e-05
-1.25505e-05
2.33803e-05
-1.15834e-05
2.213e-05
-1.06222e-05
2.02242e-05
-9.83662e-06
1.7925e-05
-9.28117e-06
1.54031e-05
-8.91278e-06
1.27765e-05
1.00581e-05
-8.69923e-06
-4.32931e-06
9.85985e-06
-7.52419e-06
1.39684e-05
-8.97455e-06
1.78963e-05
-8.66828e-06
2.09109e-05
-7.27981e-06
2.20234e-05
-5.52508e-06
2.16265e-05
-3.79025e-06
2.03963e-05
-2.26189e-06
1.86964e-05
-1.02692e-06
1.66906e-05
-9.92163e-08
1.44756e-05
5.64156e-07
1.21133e-05
9.61507e-06
1.00726e-06
-3.87529e-06
1.37369e-05
-5.98973e-06
1.60836e-05
-5.98504e-06
1.78926e-05
-4.20706e-06
1.91338e-05
-1.5797e-06
1.93969e-05
1.16537e-06
1.88823e-05
3.68029e-06
1.78821e-05
5.82262e-06
1.65547e-05
7.54912e-06
1.49646e-05
8.87685e-06
1.31482e-05
9.86088e-06
1.11295e-05
8.91767e-06
1.05584e-05
-3.33419e-06
1.70727e-05
-4.413e-06
1.71635e-05
-2.78564e-06
1.62657e-05
4.35213e-07
1.59136e-05
4.22372e-06
1.5609e-05
7.9037e-06
1.52029e-05
1.11697e-05
1.46166e-05
1.39146e-05
1.38103e-05
1.61287e-05
1.27508e-05
1.78546e-05
1.14227e-05
1.91637e-05
9.82057e-06
7.95433e-06
2.01272e-05
-3.55319e-06
2.06277e-05
-2.119e-06
1.57301e-05
2.05763e-06
1.20898e-05
6.83208e-06
1.11397e-05
1.1613e-05
1.08286e-05
1.59781e-05
1.08384e-05
1.97446e-05
1.08506e-05
2.28732e-05
1.06822e-05
2.53952e-05
1.02292e-05
2.73757e-05
9.44246e-06
2.89026e-05
8.29383e-06
6.80121e-06
3.0056e-05
2.77213e-07
2.03526e-05
6.23742e-06
9.77092e-06
1.25576e-05
5.7702e-06
1.82606e-05
5.43733e-06
2.3246e-05
5.84386e-06
2.74972e-05
6.58781e-06
3.10578e-05
7.29056e-06
3.39817e-05
7.75877e-06
3.6338e-05
7.87329e-06
3.81996e-05
7.5812e-06
3.96575e-05
6.83614e-06
5.67455e-06
4.07844e-05
2.03644e-05
-1.06665e-08
2.87087e-05
1.42743e-06
3.39672e-05
5.12677e-07
3.8103e-05
1.30217e-06
4.13453e-05
2.60205e-06
4.40121e-05
3.92158e-06
4.62528e-05
5.05045e-06
4.81189e-05
5.89312e-06
4.96462e-05
6.34641e-06
5.08679e-05
6.35983e-06
5.18504e-05
5.85395e-06
5.26368e-05
4.88833e-06
-5.94641e-05
5.02017e-06
-6.23354e-05
2.87073e-06
-6.34846e-05
1.14961e-06
-6.28107e-05
-6.74253e-07
-6.05165e-05
-2.29383e-06
-5.64283e-05
-4.08844e-06
-5.04972e-05
-5.93074e-06
-4.25634e-05
-7.93357e-06
-3.25199e-05
-1.00432e-05
-2.05266e-05
-1.19929e-05
-8.43706e-06
-1.20889e-05
-8.43683e-06
-5.09564e-05
6.32387e-06
-5.1757e-05
3.67072e-06
-5.18181e-05
1.21087e-06
-5.1273e-05
-1.21974e-06
-4.98804e-05
-3.68622e-06
-4.75916e-05
-6.37732e-06
-4.41703e-05
-9.35185e-06
-3.9409e-05
-1.26946e-05
-3.30345e-05
-1.64174e-05
-2.48256e-05
-2.02015e-05
-1.38103e-05
-2.31038e-05
-2.22469e-05
-3.96296e-05
7.0552e-06
-4.01481e-05
4.1887e-06
-4.031e-05
1.37263e-06
-4.00023e-05
-1.5277e-06
-3.90763e-05
-4.61221e-06
-3.74642e-05
-7.98961e-06
-3.50387e-05
-1.17771e-05
-3.16984e-05
-1.60346e-05
-2.73215e-05
-2.07941e-05
-2.139e-05
-2.61329e-05
-1.29964e-05
-3.1497e-05
-3.52432e-05
-2.91684e-05
7.29871e-06
-2.93168e-05
4.33677e-06
-2.92615e-05
1.31719e-06
-2.89269e-05
-1.8626e-06
-2.82404e-05
-5.29874e-06
-2.71426e-05
-9.08751e-06
-2.55468e-05
-1.33728e-05
-2.33526e-05
-1.82288e-05
-2.03779e-05
-2.37686e-05
-1.61601e-05
-3.03505e-05
-9.83787e-06
-3.78187e-05
-4.50811e-05
-1.86914e-05
7.35537e-06
-1.87272e-05
4.37237e-06
-1.86781e-05
1.26788e-06
-1.84993e-05
-2.04149e-06
-1.81522e-05
-5.64607e-06
-1.75928e-05
-9.64678e-06
-1.6769e-05
-1.41966e-05
-1.56071e-05
-1.93904e-05
-1.3912e-05
-2.54636e-05
-1.15133e-05
-3.27487e-05
-7.53666e-06
-4.17957e-05
-5.26175e-05
-8.5939e-06
7.24987e-06
-8.54823e-06
4.32661e-06
-8.52131e-06
1.24096e-06
-8.48753e-06
-2.07535e-06
-8.42949e-06
-5.70388e-06
-8.33143e-06
-9.7448e-06
-8.19815e-06
-1.43294e-05
-7.97945e-06
-1.96088e-05
-7.59016e-06
-2.58524e-05
-6.84429e-06
-3.34951e-05
-4.99483e-06
-4.36445e-05
-5.76126e-05
1.27789e-06
6.97932e-06
1.41582e-06
4.18879e-06
1.44776e-06
1.20914e-06
1.38331e-06
-2.01058e-06
1.21652e-06
-5.53685e-06
9.29251e-07
-9.45705e-06
4.89627e-07
-1.38894e-05
-1.18515e-07
-1.90002e-05
-8.85093e-07
-2.50857e-05
-1.70702e-06
-3.26723e-05
-2.17141e-06
-4.31807e-05
-5.97837e-05
1.10236e-05
6.51433e-06
1.12941e-05
3.91845e-06
1.13888e-05
1.11477e-06
1.13045e-05
-1.92592e-06
1.10154e-05
-5.24717e-06
1.04717e-05
-8.91284e-06
9.59567e-06
-1.30127e-05
8.29311e-06
-1.7697e-05
6.45867e-06
-2.32505e-05
4.04697e-06
-3.02605e-05
1.39039e-06
-4.05231e-05
-5.83923e-05
2.08106e-05
5.83118e-06
2.12541e-05
3.47523e-06
2.14738e-05
8.95467e-07
2.14586e-05
-1.91015e-06
2.11676e-05
-4.95549e-06
2.05251e-05
-8.26963e-06
1.94029e-05
-1.18896e-05
1.76222e-05
-1.59154e-05
1.4928e-05
-2.05554e-05
1.10431e-05
-2.63745e-05
6.00513e-06
-3.5483e-05
-5.23867e-05
3.09143e-05
4.97304e-06
3.15211e-05
2.86875e-06
3.18937e-05
5.23354e-07
3.20164e-05
-2.03227e-06
3.18383e-05
-4.77673e-06
3.12667e-05
-7.69721e-06
3.01288e-05
-1.07509e-05
2.81655e-05
-1.39511e-05
2.49533e-05
-1.73422e-05
1.99706e-05
-2.13903e-05
1.23521e-05
-2.78641e-05
-4.0032e-05
4.16687e-05
4.08902e-06
4.23485e-05
2.18934e-06
4.28421e-05
3.02471e-08
4.31318e-05
-2.3214e-06
4.31593e-05
-4.80357e-06
4.28221e-05
-7.35917e-06
4.19197e-05
-9.84771e-06
4.01514e-05
-1.21818e-05
3.69428e-05
-1.41327e-05
3.15269e-05
-1.59739e-05
2.13492e-05
-1.76832e-05
-1.86818e-05
5.33254e-05
3.40076e-06
5.3934e-05
1.581e-06
5.44776e-05
-5.12962e-07
5.49324e-05
-2.77586e-06
5.5231e-05
-5.10165e-06
5.52632e-05
-7.39079e-06
5.48244e-05
-9.4083e-06
5.36376e-05
-1.09944e-05
5.11571e-05
-1.16517e-05
4.6396e-05
-1.12117e-05
3.56124e-05
-6.89959e-06
1.69322e-05
6.7586e-05
4.0121e-06
-7.16111e-05
6.6766e-05
2.2488e-06
6.51868e-05
2.09411e-06
6.42879e-05
2.20332e-06
6.3984e-05
2.90751e-06
6.40495e-05
3.85666e-06
6.42997e-05
4.79969e-06
6.46009e-05
5.59027e-06
6.48793e-05
6.06554e-06
6.51002e-05
6.13595e-06
6.52994e-05
5.65138e-06
4.69177e-06
6.54926e-05
8.68996e-05
3.21204e-06
-8.60997e-05
8.64325e-05
2.71627e-06
8.55824e-05
2.94449e-06
8.45409e-05
3.24519e-06
8.35575e-05
3.89129e-06
8.26709e-05
4.74372e-06
8.1858e-05
5.61293e-06
8.10884e-05
6.36022e-06
8.03495e-05
6.80468e-06
7.96537e-05
6.83198e-06
7.90787e-05
6.22671e-06
5.09469e-06
7.86759e-05
0.000100235
2.38632e-06
-9.9409e-05
0.000100385
2.56738e-06
0.000100184
3.1458e-06
9.96428e-05
3.78634e-06
9.88607e-05
4.6738e-06
9.78905e-05
5.71448e-06
9.67687e-05
6.73513e-06
9.55409e-05
7.58851e-06
9.42692e-05
8.07686e-06
9.30546e-05
8.04701e-06
9.20431e-05
7.2384e-06
5.72781e-06
9.14101e-05
0.000112076
-0.0001117
2.01027e-06
0.000112164
2.47914e-06
0.000111985
3.32535e-06
0.000111498
4.27318e-06
0.000110714
5.45847e-06
0.000109665
6.76302e-06
0.000108405
7.99607e-06
0.000107022
8.9711e-06
0.000105642
9.45719e-06
0.000104456
9.23388e-06
0.000103666
8.02802e-06
0.000103718