/*--------------------------------*- C++ -*----------------------------------*\
| =========                 |                                                 |
| \\      /  F ield         | OpenFOAM: The Open Source CFD Toolbox           |
|  \\    /   O peration     | Version:  v1912                                 |
|   \\  /    A nd           | Website:  www.openfoam.com                      |
|    \\/     M anipulation  |                                                 |
\*---------------------------------------------------------------------------*/
FoamFile
{
    version     2.0;
    format      ascii;
    class       volVectorField;
    location    "300";
    object      U;
}
// * * * * * * * * * * * * * * * * * * * * * * * * * * * * * * * * * * * * * //

dimensions      [0 1 -1 0 0 0 0];


internalField   nonuniform List<vector> 
3072
(
(0.225919 2.22443 0)
(0.251341 1.93292 0)
(0.336809 1.755 1.38104e-19)
(0.447727 1.66084 8.45435e-19)
(0.56968 1.58689 -1.58578e-18)
(0.675483 1.66039 9.16012e-19)
(1.00084 1.80514 4.51441e-19)
(1.87299 1.55697 4.92706e-19)
(2.77048 1.7795 -2.59708e-19)
(3.04028 2.2311 8.48643e-19)
(3.33091 2.38001 5.86163e-19)
(3.60131 2.52936 5.98573e-19)
(-0.427231 2.75583 -2.49304e-19)
(-0.234789 2.37401 -5.08735e-19)
(0.0355293 2.38215 5.28453e-19)
(0.379024 2.45961 0)
(0.893634 2.46372 8.47879e-19)
(1.74038 2.57775 -9.44559e-19)
(2.47388 2.9015 0)
(2.86677 2.93112 0)
(3.03239 2.99389 0)
(3.06939 3.01587 7.1876e-19)
(3.17237 3.01733 -2.51788e-18)
(3.28996 2.99544 4.26942e-19)
(-0.358847 3.03774 1.67799e-19)
(0.00263197 2.75881 0)
(0.537223 2.83489 0)
(1.20972 2.94312 -3.00099e-18)
(1.93809 3.11674 9.8088e-19)
(2.47072 3.1678 -1.91045e-18)
(2.81663 3.17053 1.94589e-18)
(3.01837 3.0565 0)
(3.13407 2.95931 0)
(3.20152 2.87766 -1.01683e-18)
(3.28757 2.79934 -1.02018e-18)
(3.37108 2.71816 3.45898e-18)
(-0.208061 3.32547 -1.41893e-18)
(0.290754 3.20084 -2.42374e-18)
(0.941955 3.33119 1.6345e-18)
(1.62118 3.4119 -1.51763e-18)
(2.19425 3.42497 3.54406e-18)
(2.57087 3.33715 -3.8105e-18)
(2.79716 3.22489 -2.39074e-18)
(2.95428 3.08086 -5.75317e-18)
(3.04337 2.96282 -2.07732e-19)
(3.10669 2.86048 3.01597e-18)
(3.17489 2.76359 3.33181e-18)
(3.23877 2.66891 -2.74227e-18)
(0.0423169 3.51034 0)
(0.568822 3.52003 1.10154e-18)
(1.18888 3.61529 -2.22452e-18)
(1.7935 3.61325 3.14845e-18)
(2.2498 3.52544 5.55405e-19)
(2.53384 3.38305 2.36762e-18)
(2.71703 3.23154 2.08961e-18)
(2.83193 3.07701 2.00105e-18)
(2.91317 2.93684 -4.10233e-18)
(2.98019 2.81219 3.55519e-18)
(3.04678 2.69687 -4.83482e-18)
(3.11221 2.58836 6.46544e-18)
(0.268979 3.66505 -3.30069e-18)
(0.781556 3.7586 1.48183e-18)
(1.33462 3.80044 4.24927e-18)
(1.84455 3.73168 0)
(2.20996 3.58786 -6.58627e-18)
(2.44131 3.41264 6.58229e-18)
(2.59482 3.23559 0)
(2.70386 3.06402 -4.87277e-18)
(2.78728 2.90767 4.196e-18)
(2.85867 2.76715 0)
(2.92654 2.63875 2.41273e-19)
(2.99248 2.52026 3.8604e-18)
(0.452861 3.82449 0)
(0.928032 3.98125 -3.47644e-18)
(1.40298 3.9635 3.19442e-18)
(1.82227 3.84683 0)
(2.12176 3.66234 -3.92075e-18)
(2.3218 3.45716 5.98294e-19)
(2.46374 3.25484 5.60403e-18)
(2.57172 3.06422 5.13268e-18)
(2.65947 2.89043 -4.52301e-18)
(2.73621 2.73373 4.45695e-18)
(2.80763 2.59163 -3.86297e-18)
(2.87579 2.462 -1.08172e-17)
(0.611009 4.0105 0)
(1.02173 4.21395 3.1167e-18)
(1.41154 4.13652 -4.77585e-18)
(1.74995 3.97908 4.7758e-18)
(2.00175 3.75812 0)
(2.18508 3.52194 -6.15402e-18)
(2.32504 3.29256 5.95915e-18)
(2.43745 3.07903 1.01019e-19)
(2.53185 2.88494 -9.74347e-18)
(2.61476 2.71033 -4.52372e-18)
(2.69038 2.55316 -2.41962e-19)
(2.76099 2.4112 8.05383e-18)
(0.713181 4.19006 0)
(1.07468 4.45593 -3.9759e-18)
(1.37276 4.31135 -5.56582e-18)
(1.638 4.11128 -3.98379e-18)
(1.8551 3.85632 7.89023e-18)
(2.03111 3.59003 0)
(2.17547 3.33398 0)
(2.29626 3.097 0)
(2.39937 2.88222 0)
(2.48944 2.68959 4.66225e-18)
(2.56984 2.51726 -4.64014e-18)
(2.64305 2.3628 4.41767e-18)
(0.81169 4.47685 0)
(1.05458 4.69272 2.92082e-18)
(1.25437 4.44186 -6.3628e-19)
(1.47276 4.1808 4.59551e-18)
(1.67169 3.89481 4.49821e-18)
(1.84742 3.60657 -7.15449e-18)
(2.00085 3.33381 0)
(2.13367 3.08253 -2.12121e-19)
(2.24839 2.85481 -1.72483e-17)
(2.34802 2.65052 0)
(2.43514 2.46802 1.05207e-17)
(2.51241 2.30485 -4.88898e-18)
(0.966114 4.56893 0)
(0.948524 4.68767 3.30542e-18)
(1.04096 4.35742 9.59622e-18)
(1.23087 4.04361 -8.14064e-18)
(1.42597 3.75689 -1.13979e-17)
(1.61193 3.47905 1.79434e-17)
(1.78162 3.21928 -2.02872e-19)
(1.93206 2.97932 -6.96134e-18)
(2.06312 2.75977 5.65517e-18)
(2.17659 2.56069 -1.19105e-17)
(2.27414 2.38127 -1.63685e-17)
(2.35867 2.21959 1.64028e-17)
(0.386758 4.16913 -1.87112e-18)
(0.566841 4.10415 -1.24388e-17)
(0.700733 3.79629 2.37856e-18)
(0.903112 3.53574 0)
(1.12081 3.33024 0)
(1.33019 3.12785 3.57792e-19)
(1.52174 2.93128 1.88651e-17)
(1.69287 2.74172 1.1632e-17)
(1.84271 2.56121 0)
(1.9727 2.39192 1.08712e-17)
(2.08341 2.23512 0)
(2.1781 2.09033 4.85011e-19)
(3.87436 2.47065 6.8396e-19)
(4.07917 2.4193 -5.76093e-19)
(4.22659 2.26615 -1.58916e-19)
(4.30178 2.11689 -5.19588e-19)
(4.31054 1.91969 -2.45718e-19)
(4.25088 1.72079 0)
(4.11249 1.50449 0)
(3.89535 1.29419 7.78847e-19)
(3.59868 1.07437 -9.15144e-19)
(3.19061 0.82636 0)
(2.73959 0.420852 0)
(2.61842 -0.0996144 -4.85219e-20)
(3.4018 2.9614 1.45298e-18)
(3.51368 2.88892 0)
(3.62579 2.77971 -8.9619e-19)
(3.72706 2.63586 4.0525e-19)
(3.80492 2.46797 2.54039e-19)
(3.84144 2.29601 2.55178e-18)
(3.8287 2.1269 -4.12867e-18)
(3.76206 1.97501 6.5549e-19)
(3.63895 1.85709 0)
(3.36255 1.74502 0)
(3.08625 1.6181 0)
(3.2057 1.16971 6.89884e-19)
(3.45658 2.6327 1.37657e-18)
(3.54003 2.53979 -3.74679e-18)
(3.61945 2.43763 1.02864e-18)
(3.68409 2.33211 2.49448e-18)
(3.727 2.22637 -2.56809e-18)
(3.74083 2.12757 0)
(3.72222 2.04605 0)
(3.67065 1.99064 -2.11895e-19)
(3.59319 1.96759 1.05746e-18)
(3.44436 1.9624 0)
(3.20847 1.95821 0)
(3.40495 1.85664 -4.49631e-19)
(3.30438 2.57603 3.09224e-19)
(3.3721 2.48255 3.7496e-18)
(3.43728 2.38693 2.63165e-18)
(3.49313 2.29263 -2.62618e-18)
(3.53502 2.20486 0)
(3.55956 2.12997 1.55884e-18)
(3.56372 2.07571 0)
(3.55102 2.04969 2.46648e-18)
(3.5193 2.05758 -7.31948e-19)
(3.44734 2.12028 0)
(3.26056 2.21401 -5.24213e-19)
(3.55289 2.2969 6.14986e-19)
(3.17838 2.4852 -2.65258e-18)
(3.24375 2.38602 0)
(3.30538 2.2911 0)
(3.36009 2.20334 0)
(3.40591 2.12694 0)
(3.44195 2.06705 -2.79159e-18)
(3.46662 2.03282 -1.25435e-19)
(3.48088 2.02827 -1.29342e-18)
(3.49109 2.06535 0)
(3.47862 2.15833 -1.01258e-18)
(3.35918 2.31447 4.73439e-19)
(3.76518 2.53319 -1.57977e-19)
(3.05773 2.41001 -2.13399e-19)
(3.12158 2.307 -6.40692e-18)
(3.18268 2.21172 3.0325e-18)
(3.23976 2.1264 4.49279e-22)
(3.29236 2.05449 1.9869e-19)
(3.34069 2.00058 4.41683e-18)
(3.38624 1.97084 -1.41162e-19)
(3.4312 1.97196 -4.99607e-18)
(3.47776 2.01542 -2.0177e-18)
(3.52911 2.11731 1.02261e-18)
(3.47461 2.31605 -1.27127e-18)
(3.93325 2.65563 -5.10705e-19)
(2.94188 2.34313 1.03327e-17)
(3.00609 2.23405 3.38073e-18)
(3.06833 2.13499 0)
(3.12876 2.04746 0)
(3.18827 1.97409 1.89815e-19)
(3.24857 1.91858 -3.22937e-18)
(3.31248 1.88599 5.08853e-18)
(3.38383 1.88256 -1.19866e-19)
(3.46633 1.91899 1.74035e-18)
(3.56717 2.01395 0)
(3.59061 2.21048 -2.31931e-19)
(4.08635 2.631 -7.79984e-20)
(2.82805 2.28248 -3.85227e-18)
(2.89257 2.16567 -3.54246e-18)
(2.95551 2.06045 3.79907e-18)
(3.01818 1.96753 -3.56765e-18)
(3.08265 1.88858 1.15223e-21)
(3.15193 1.82621 7.14463e-18)
(3.2304 1.78406 -3.30111e-18)
(3.32395 1.76753 1.875e-18)
(3.43872 1.78611 0)
(3.58775 1.85944 1.1459e-18)
(3.69193 2.04058 5.82815e-19)
(4.19198 2.50228 -8.86443e-19)
(2.71086 2.2239 4.25942e-18)
(2.77505 2.09858 -4.12069e-18)
(2.83747 1.98585 -3.85026e-18)
(2.90033 1.88558 -8.02494e-18)
(2.96666 1.79841 7.74926e-18)
(3.04049 1.72562 -7.46842e-18)
(3.12773 1.66908 0)
(3.23662 1.63251 -1.79912e-18)
(3.37653 1.62266 0)
(3.56773 1.65783 0)
(3.7544 1.80041 0)
(4.24605 2.22711 4.23756e-19)
(2.58178 2.15865 4.71341e-18)
(2.64573 2.02672 -9.42514e-18)
(2.70677 1.90755 9.17363e-18)
(2.76775 1.80017 8.80964e-18)
(2.83243 1.70421 4.26788e-18)
(2.90561 1.61969 0)
(2.99441 1.54625 0)
(3.10908 1.48502 4.21546e-18)
(3.26307 1.43831 0)
(3.48714 1.42111 -1.20035e-18)
(3.73815 1.48654 7.82132e-19)
(4.22924 1.79768 -1.24114e-18)
(2.43189 2.07401 -1.06724e-17)
(2.49687 1.94127 9.79726e-18)
(2.55658 1.81991 -9.53109e-18)
(2.61421 1.70848 -2.3903e-17)
(2.67374 1.60585 -2.32713e-19)
(2.74051 1.51097 1.28734e-19)
(2.82291 1.4211 -4.63311e-18)
(2.9314 1.33406 -4.26498e-18)
(3.08366 1.24556 0)
(3.31966 1.16467 3.65639e-18)
(3.6073 1.09936 8.98859e-19)
(4.09087 1.07415 -1.7467e-18)
(2.25725 1.95765 -4.79448e-19)
(2.32435 1.83333 0)
(2.38253 1.71699 0)
(2.43502 1.60701 4.66905e-18)
(2.48604 1.50221 1.42582e-17)
(2.54061 1.40106 -4.67007e-18)
(2.6086 1.29896 -2.11006e-19)
(2.69822 1.19073 -2.43734e-18)
(2.82989 1.06393 -2.28081e-18)
(3.0325 0.917128 -2.30291e-18)
(3.33161 0.69054 0)
(3.67824 -0.0208252 2.28983e-18)
(2.2239 -0.227224 3.17732e-22)
(1.93155 -0.252573 0)
(1.75379 -0.3372 -1.37829e-19)
(1.66 -0.448034 0)
(1.58601 -0.569654 -7.87627e-19)
(1.65879 -0.675302 9.1462e-19)
(1.80478 -0.998962 0)
(1.55732 -1.8679 3.22095e-19)
(1.77582 -2.76848 -2.57246e-19)
(2.22929 -3.04014 6.40229e-20)
(2.37813 -3.32972 -6.94791e-19)
(2.5282 -3.60082 -5.99278e-19)
(2.75587 0.426647 -2.86226e-19)
(2.37379 0.234654 -1.34911e-19)
(2.38134 -0.0353428 5.55811e-19)
(2.45862 -0.378128 0)
(2.46344 -0.890746 -8.49877e-19)
(2.57562 -1.73728 4.02817e-19)
(2.89962 -2.47209 0)
(2.93024 -2.86664 8.05343e-19)
(2.99251 -3.03296 -3.55434e-18)
(3.01485 -3.06999 1.88241e-18)
(3.01623 -3.17251 1.31034e-18)
(2.99453 -3.2901 -3.5315e-18)
(3.03758 0.359306 -1.6782e-19)
(2.75837 -0.00145554 0)
(2.83404 -0.535463 -1.73604e-18)
(2.94159 -1.20743 0)
(3.11557 -1.93664 0)
(3.16685 -2.47012 -8.04757e-19)
(3.16992 -2.81673 4.30745e-18)
(3.05617 -3.01859 -3.05423e-18)
(2.95867 -3.13458 9.22039e-19)
(2.87704 -3.20195 0)
(2.79868 -3.28781 2.54824e-18)
(2.71752 -3.37125 -1.46824e-18)
(3.32565 0.20898 9.02949e-19)
(3.20041 -0.289362 1.37971e-18)
(3.33063 -0.940446 1.20293e-18)
(3.41138 -1.61997 2.28041e-18)
(3.42479 -2.19375 -1.64456e-18)
(3.33702 -2.57089 -1.34716e-18)
(3.22479 -2.79751 0)
(3.08067 -2.95471 0)
(2.96245 -3.04391 1.94434e-18)
(2.86005 -3.10713 0)
(2.76312 -3.17522 4.08192e-19)
(2.66843 -3.23904 1.18714e-18)
(3.51073 -0.0410856 1.68478e-18)
(3.51994 -0.567409 -8.85831e-19)
(3.61533 -1.18767 -2.22728e-18)
(3.61344 -1.79278 0)
(3.52574 -2.24966 0)
(3.38327 -2.53402 3.19996e-18)
(3.23164 -2.71742 0)
(3.07701 -2.83235 -4.71405e-18)
(2.93669 -2.91362 -1.94548e-18)
(2.81193 -2.98056 3.55875e-18)
(2.69656 -3.04708 -4.83956e-18)
(2.588 -3.11243 3.07775e-18)
(3.66554 -0.267766 -1.83427e-18)
(3.75876 -0.780355 -1.29496e-18)
(3.80084 -1.33371 1.84545e-18)
(3.73218 -1.8441 3.03172e-19)
(3.58837 -2.20992 3.31532e-18)
(3.41303 -2.44149 -6.33484e-18)
(3.23584 -2.59512 5.6218e-18)
(3.06413 -2.70419 5.23961e-19)
(2.90764 -2.78762 0)
(2.76701 -2.85898 0)
(2.63853 -2.9268 7.47379e-18)
(2.52 -2.99269 3.94681e-20)
(3.82503 -0.45188 -4.61126e-20)
(3.98157 -0.927093 -1.92629e-18)
(3.96408 -1.40232 0)
(3.84749 -1.82196 -3.93871e-18)
(3.66294 -2.12173 4.15917e-18)
(3.45763 -2.32193 1.00953e-17)
(3.25517 -2.46395 6.15274e-18)
(3.06442 -2.57197 7.40224e-19)
(2.89049 -2.65974 -9.49897e-18)
(2.73369 -2.73646 4.16431e-18)
(2.59151 -2.80786 4.41824e-18)
(2.46182 -2.87598 2.28401e-19)
(4.01101 -0.610327 1.9866e-19)
(4.21437 -1.02105 3.11905e-18)
(4.13718 -1.41106 0)
(3.97979 -1.7497 -4.77818e-18)
(3.75877 -2.0017 -3.50498e-18)
(3.52248 -2.18515 5.74453e-19)
(3.29295 -2.32517 -1.13145e-17)
(3.0793 -2.43763 3.74832e-19)
(2.88507 -2.53206 -2.48733e-19)
(2.71036 -2.61497 4.7554e-18)
(2.55311 -2.69058 -3.82628e-18)
(2.41108 -2.76118 2.00241e-19)
(4.19049 -0.712955 -3.53507e-18)
(4.45639 -1.0743 1.60225e-18)
(4.31196 -1.37242 -8.10449e-18)
(4.11195 -1.63778 3.98453e-18)
(3.85695 -1.855 0)
(3.59056 -2.03109 0)
(3.3344 -2.17553 6.36086e-18)
(3.09731 -2.29637 1.14609e-17)
(2.88241 -2.39952 -5.18072e-18)
(2.68968 -2.48962 -4.66476e-18)
(2.51727 -2.57003 -4.42743e-18)
(2.36275 -2.64324 0)
(4.47721 -0.81172 7.08261e-20)
(4.69301 -1.05419 4.42772e-18)
(4.4423 -1.25407 9.86179e-18)
(4.18132 -1.47253 0)
(3.89532 -1.67152 7.88748e-18)
(3.60703 -1.84733 0)
(3.33419 -2.00083 3.19338e-19)
(3.08282 -2.13371 -5.66348e-18)
(2.85501 -2.24848 6.0333e-18)
(2.65063 -2.34816 0)
(2.46807 -2.43531 0)
(2.30484 -2.5126 -1.00923e-17)
(4.56896 -0.9663 -6.73969e-18)
(4.68773 -0.948421 3.30023e-18)
(4.35759 -1.04073 5.38184e-19)
(4.04386 -1.23062 -8.95951e-18)
(3.75716 -1.42574 -3.53482e-18)
(3.47932 -1.61175 -3.58927e-18)
(3.21952 -1.78151 -6.94952e-18)
(2.97952 -1.93202 -1.94841e-17)
(2.75992 -2.06315 -5.65664e-18)
(2.56079 -2.17669 -1.1914e-17)
(2.38132 -2.27429 1.14411e-17)
(2.21959 -2.35885 1.04233e-17)
(4.1691 -0.386849 3.57932e-18)
(4.10398 -0.566681 -1.42925e-18)
(3.79615 -0.700479 3.51181e-19)
(3.5357 -0.902827 7.49455e-18)
(3.33026 -1.12054 0)
(3.12792 -1.32997 -6.78092e-18)
(2.93137 -1.52158 6.08004e-18)
(2.74181 -1.69279 5.40676e-18)
(2.56129 -1.84271 -1.75085e-17)
(2.39198 -1.97278 1.08723e-17)
(2.23515 -2.08355 -1.05896e-17)
(2.09034 -2.17828 0)
(2.46949 -3.8735 -6.28109e-19)
(2.41852 -4.0787 1.53817e-18)
(2.26536 -4.22599 -1.07533e-18)
(2.11637 -4.30141 -4.73598e-19)
(1.91921 -4.31005 1.03459e-19)
(1.72051 -4.25058 4.86447e-20)
(1.50424 -4.11213 -1.13527e-19)
(1.29405 -3.89512 -2.78083e-19)
(1.07427 -3.59842 -9.15395e-19)
(0.82632 -3.19044 0)
(0.420805 -2.73946 0)
(-0.0998629 -2.61827 -4.85509e-20)
(2.96061 -3.40171 -3.70251e-20)
(2.8883 -3.51356 1.98957e-18)
(2.77919 -3.62559 -8.96188e-19)
(2.63543 -3.72684 0)
(2.46761 -3.8047 1.59501e-18)
(2.29571 -3.84124 0)
(2.12666 -3.8285 1.22785e-18)
(1.97482 -3.7619 2.17361e-18)
(1.85695 -3.63882 -1.86424e-18)
(1.74492 -3.36247 0)
(1.61799 -3.08619 0)
(1.16944 -3.20572 -1.9673e-20)
(2.63208 -3.45664 9.77518e-19)
(2.53923 -3.54004 -9.20602e-19)
(2.43712 -3.6194 1.02982e-18)
(2.33167 -3.68401 0)
(2.226 -3.72689 -1.13246e-18)
(2.12726 -3.74072 2.92552e-18)
(2.04579 -3.7221 -4.22237e-18)
(1.99044 -3.67055 -4.86715e-18)
(1.96743 -3.59311 2.97912e-18)
(1.96227 -3.44431 0)
(1.95808 -3.20844 5.78571e-19)
(1.8565 -3.40501 1.47436e-19)
(2.57556 -3.30455 1.15734e-18)
(2.4821 -3.37217 -2.60857e-18)
(2.38652 -3.43729 2.63399e-18)
(2.29226 -3.49309 -2.62837e-18)
(2.20453 -3.53496 0)
(2.12968 -3.55948 1.55978e-18)
(2.07546 -3.56364 1.13619e-18)
(2.04948 -3.55095 6.84015e-19)
(2.0574 -3.51925 -1.48526e-18)
(2.12014 -3.44731 0)
(2.21386 -3.26053 -3.40912e-19)
(2.2967 -3.55291 5.57726e-19)
(2.48484 -3.17852 2.96796e-18)
(2.38566 -3.24383 -1.55227e-18)
(2.29076 -3.30542 0)
(2.20302 -3.3601 0)
(2.12665 -3.40589 1.52479e-18)
(2.06677 -3.44192 -1.27802e-18)
(2.03258 -3.46658 -2.27387e-19)
(2.02806 -3.48085 0)
(2.06517 -3.49106 -7.72211e-19)
(2.15818 -3.47861 1.01292e-18)
(2.31433 -3.35917 -1.03474e-18)
(2.53303 -3.76524 -2.54626e-19)
(2.40973 -3.05788 -6.42887e-18)
(2.30671 -3.12169 3.09454e-18)
(2.21144 -3.18275 6.27159e-18)
(2.12612 -3.23981 4.46662e-22)
(2.05422 -3.29239 -7.57234e-18)
(2.00034 -3.3407 -3.23499e-18)
(1.97061 -3.38625 -2.22593e-19)
(1.97176 -3.4312 0)
(2.01523 -3.47776 0)
(2.11715 -3.52913 -1.02288e-18)
(2.3159 -3.47461 -7.40142e-19)
(2.65548 -3.93329 2.23376e-19)
(2.34292 -2.94204 3.52889e-18)
(2.23382 -3.00622 -6.97546e-18)
(2.13475 -3.06843 -3.10956e-18)
(2.04723 -3.12884 -1.79334e-19)
(1.97386 -3.18833 3.0238e-18)
(1.91836 -3.24862 3.01401e-18)
(1.88578 -3.31252 1.71619e-18)
(1.88236 -3.38386 1.68785e-18)
(1.91881 -3.46636 -1.88792e-18)
(2.01379 -3.5672 0)
(2.21035 -3.59062 1.19302e-18)
(2.6309 -4.08641 -3.4456e-19)
(2.28233 -2.82822 0)
(2.16549 -2.89272 3.54463e-18)
(2.06025 -2.95564 0)
(1.96733 -3.01829 -1.79399e-19)
(1.88838 -3.08274 1.15755e-21)
(1.826 -3.15201 7.14846e-18)
(1.78387 -3.23047 -1.56021e-18)
(1.76735 -3.324 -3.65993e-18)
(1.78594 -3.43876 -2.02484e-18)
(1.85929 -3.58779 1.14627e-18)
(2.04046 -3.69197 -2.23296e-18)
(2.5022 -4.19202 1.12767e-18)
(2.22381 -2.71104 4.26177e-18)
(2.09845 -2.77523 -4.12295e-18)
(1.9857 -2.83763 -4.17063e-18)
(1.88541 -2.90047 4.08673e-18)
(1.79824 -2.96678 3.87971e-18)
(1.72544 -3.0406 -1.14424e-17)
(1.6689 -3.12782 0)
(1.63234 -3.23669 1.7999e-18)
(1.6225 -3.37658 1.8722e-18)
(1.6577 -3.56778 0)
(1.8003 -3.75444 2.74727e-18)
(2.22706 -4.24608 -2.02095e-18)
(2.15859 -2.58197 0)
(2.02663 -2.64591 -9.42963e-18)
(1.90744 -2.70694 -4.88386e-18)
(1.80004 -2.76791 -8.55457e-18)
(1.70407 -2.83258 4.26983e-18)
(1.61954 -2.90573 4.05076e-18)
(1.5461 -2.99451 0)
(1.48487 -3.10916 0)
(1.43816 -3.26313 0)
(1.42097 -3.48719 0)
(1.48644 -3.73819 -7.83426e-19)
(1.79764 -4.22927 -1.01334e-19)
(2.07398 -2.43208 5.20283e-18)
(1.94121 -2.49707 4.74917e-18)
(1.81982 -2.55677 1.96141e-17)
(1.70838 -2.61438 5.02797e-18)
(1.60574 -2.67389 1.89983e-17)
(1.51085 -2.74064 -4.5994e-18)
(1.42097 -2.82301 -4.63476e-18)
(1.33393 -2.93148 0)
(1.24542 -3.08371 -4.48642e-18)
(1.16454 -3.31971 -2.43009e-18)
(1.09926 -3.60733 -1.83066e-18)
(1.07411 -4.09086 -1.08806e-25)
(1.95764 -2.25745 0)
(1.83329 -2.32456 0)
(1.71693 -2.38272 -1.9987e-17)
(1.60693 -2.4352 -1.45199e-17)
(1.50212 -2.48619 -4.60217e-18)
(1.40096 -2.54074 0)
(1.29885 -2.6087 4.65819e-18)
(1.19061 -2.69828 0)
(1.06381 -2.82993 -1.9329e-19)
(0.917006 -3.03252 2.30336e-18)
(0.690445 -3.33161 6.63667e-19)
(-0.0208674 -3.67824 4.53573e-18)
(-0.227465 -2.22391 1.07526e-19)
(-0.252805 -1.93162 2.04781e-19)
(-0.337607 -1.75415 -1.9525e-19)
(-0.448232 -1.66038 4.61069e-20)
(-0.570251 -1.58667 0)
(-0.675927 -1.66043 9.28051e-20)
(-1.00141 -1.80503 0)
(-1.87383 -1.55685 4.48808e-19)
(-2.77045 -1.78005 1.0704e-18)
(-3.03985 -2.23111 -1.84685e-20)
(-3.33067 -2.38005 -1.97352e-20)
(-3.60085 -2.52918 9.43934e-19)
(0.426307 -2.75596 4.19793e-19)
(0.234136 -2.37404 -5.10911e-19)
(-0.0358862 -2.38211 5.43412e-19)
(-0.37927 -2.45974 -8.6597e-20)
(-0.893858 -2.46357 -8.51153e-19)
(-1.7407 -2.5778 -1.76355e-19)
(-2.47389 -2.90153 -8.85778e-19)
(-2.86635 -2.93088 -1.48529e-18)
(-3.03184 -2.99379 3.45493e-18)
(-3.06886 -3.01566 -6.82265e-19)
(-3.17197 -3.01714 7.83468e-19)
(-3.28954 -2.99518 4.80765e-19)
(0.358551 -3.03772 -3.3604e-19)
(-0.0030291 -2.75872 0)
(-0.537571 -2.83472 0)
(-1.21009 -2.94307 -1.27083e-18)
(-1.93835 -3.1167 0)
(-2.47065 -3.16765 -1.10592e-18)
(-2.81632 -3.17034 7.14872e-19)
(-3.01797 -3.05626 2.54029e-18)
(-3.13358 -2.95915 -1.13584e-18)
(-3.20106 -2.87749 -1.85506e-18)
(-3.28715 -2.79917 -3.56909e-18)
(-3.37068 -2.71798 3.45939e-18)
(0.207698 -3.32536 -1.80894e-18)
(-0.291243 -3.20074 -1.37964e-18)
(-0.942423 -3.33111 2.12023e-18)
(-1.62149 -3.41182 7.61942e-19)
(-2.19427 -3.42481 0)
(-2.57064 -3.33695 -4.57461e-18)
(-2.79682 -3.22468 3.80094e-18)
(-2.95386 -3.08066 0)
(-3.04293 -2.96266 2.92792e-18)
(-3.10629 -2.86033 -4.32245e-18)
(-3.17453 -2.76343 2.92374e-18)
(-3.23845 -2.66874 3.94733e-19)
(-0.0424741 -3.51036 2.51997e-18)
(-0.569189 -3.51999 2.67466e-18)
(-1.18922 -3.61524 6.94313e-19)
(-1.79363 -3.61313 0)
(-2.24968 -3.52528 -2.84615e-18)
(-2.53358 -3.38287 5.04639e-18)
(-2.71667 -3.23138 0)
(-2.83157 -3.07687 -2.56117e-18)
(-2.91282 -2.93673 -2.32765e-18)
(-2.97988 -2.81207 3.55444e-18)
(-3.04651 -2.69675 0)
(-3.11198 -2.58823 -2.78e-18)
(-0.269152 -3.66505 1.47157e-18)
(-0.781836 -3.75859 5.8109e-19)
(-1.33482 -3.80038 -1.84355e-18)
(-1.84455 -3.73157 -8.0108e-18)
(-2.20978 -3.58773 -2.49966e-19)
(-2.44103 -3.41252 6.58106e-18)
(-2.59452 -3.23549 0)
(-2.70357 -3.06393 7.37421e-18)
(-2.78701 -2.9076 -4.31966e-18)
(-2.85844 -2.76708 3.82825e-18)
(-2.92635 -2.63867 2.41162e-19)
(-2.99232 -2.52017 -3.93977e-20)
(-0.453017 -3.82451 -1.52465e-18)
(-0.928228 -3.98124 -1.27528e-18)
(-1.40308 -3.96343 0)
(-1.8222 -3.84673 8.45163e-18)
(-2.12155 -3.66224 -1.1773e-17)
(-2.32155 -3.45709 -1.90945e-19)
(-2.4635 -3.25479 -1.17472e-17)
(-2.57149 -3.06419 4.47453e-19)
(-2.65927 -2.8904 -4.5216e-18)
(-2.73605 -2.73371 -4.4556e-18)
(-2.8075 -2.59159 4.41355e-18)
(-2.87569 -2.46195 -3.66815e-18)
(-0.611118 -4.01051 -1.38459e-19)
(-1.02185 -4.2139 -1.66585e-18)
(-1.41156 -4.13643 0)
(-1.74984 -3.97898 4.77349e-18)
(-2.00157 -3.75805 3.30322e-18)
(-2.18487 -3.5219 2.90445e-18)
(-2.32483 -3.29254 -4.57179e-19)
(-2.43727 -3.07903 -1.00988e-19)
(-2.53171 -2.88494 -5.2006e-18)
(-2.61465 -2.71032 -5.26051e-19)
(-2.6903 -2.55315 2.12412e-19)
(-2.76094 -2.41117 0)
(-0.713295 -4.19005 2.19614e-18)
(-1.07474 -4.45585 0)
(-1.37273 -4.31125 0)
(-1.63789 -4.11117 -3.98252e-18)
(-1.85494 -3.85625 3.47598e-18)
(-2.03092 -3.58999 -7.01091e-18)
(-2.1753 -3.33397 0)
(-2.29611 -3.09701 5.60936e-18)
(-2.39926 -2.88223 -2.29306e-19)
(-2.48937 -2.68959 4.66099e-18)
(-2.5698 -2.51726 -4.81659e-18)
(-2.64303 -2.36279 9.18833e-18)
(-0.811715 -4.47681 4.60874e-18)
(-1.0546 -4.69263 -1.51553e-18)
(-1.25432 -4.44175 -5.24916e-18)
(-1.47265 -4.18069 -8.83329e-18)
(-1.67153 -3.89472 0)
(-1.84726 -3.60652 6.49774e-18)
(-2.0007 -3.33379 -1.29825e-17)
(-2.13354 -3.08252 5.71941e-18)
(-2.2483 -2.85482 6.02945e-18)
(-2.34797 -2.65052 0)
(-2.43512 -2.46802 -5.61712e-18)
(-2.51241 -2.30484 -9.41481e-18)
(-0.966158 -4.56891 -6.69221e-18)
(-0.9485 -4.68757 1.50247e-18)
(-1.04088 -4.35731 4.52873e-18)
(-1.23075 -4.04349 3.81363e-18)
(-1.42582 -3.75679 -4.75815e-20)
(-1.61177 -3.47898 -1.10809e-17)
(-1.78148 -3.21924 1.32091e-17)
(-1.93196 -2.9793 2.56203e-17)
(-2.06305 -2.75977 -1.77812e-17)
(-2.17656 -2.56069 -1.19082e-17)
(-2.27415 -2.38127 1.07951e-17)
(-2.3587 -2.21959 0)
(-0.386754 -4.16913 5.53558e-18)
(-0.566746 -4.10406 1.88249e-18)
(-0.700626 -3.79617 2.02728e-18)
(-0.902984 -3.53564 8.04486e-18)
(-1.12068 -3.33015 0)
(-1.33007 -3.12779 6.42286e-18)
(-1.52163 -2.93125 -1.27842e-17)
(-1.6928 -2.74171 -5.65831e-18)
(-1.84268 -2.56122 -5.76521e-18)
(-1.97271 -2.39194 1.08705e-17)
(-2.08345 -2.23513 5.65288e-18)
(-2.17817 -2.09034 1.61417e-17)
(-3.87398 -2.47051 2.00976e-19)
(-4.07868 -2.41906 5.1926e-19)
(-4.22616 -2.26596 4.28456e-19)
(-4.3013 -2.11664 -1.07e-18)
(-4.31013 -1.9195 3.49213e-19)
(-4.25046 -1.72058 0)
(-4.11214 -1.50434 -4.72101e-19)
(-3.89501 -1.29403 3.53893e-19)
(-3.59843 -1.07425 0)
(-3.19041 -0.826241 1.08473e-19)
(-2.7395 -0.420751 0)
(-2.61832 0.0997346 -2.88522e-19)
(-3.40145 -2.9611 -3.9085e-18)
(-3.51332 -2.8886 2.86645e-18)
(-3.62545 -2.77939 2.11596e-18)
(-3.72672 -2.63555 -8.69677e-19)
(-3.80459 -2.46768 0)
(-3.84112 -2.29575 0)
(-3.82841 -2.12666 1.42218e-18)
(-3.76181 -1.9748 -1.54436e-18)
(-3.63875 -1.85689 0)
(-3.36241 -1.74483 5.79628e-19)
(-3.08617 -1.61792 -6.10236e-20)
(-3.20566 -1.16956 -1.05522e-18)
(-3.45621 -2.6325 1.43898e-18)
(-3.53969 -2.53959 -2.43169e-18)
(-3.61913 -2.43742 0)
(-3.68379 -2.33189 -2.52066e-18)
(-3.72673 -2.22615 -2.64421e-18)
(-3.74059 -2.12735 5.76724e-18)
(-3.72202 -2.04583 -5.156e-18)
(-3.67048 -1.99042 0)
(-3.59305 -1.96736 0)
(-3.44427 -1.96217 0)
(-3.20843 -1.95798 -5.17483e-19)
(-3.40489 -1.85642 1.54852e-19)
(-3.30411 -2.57585 -1.15629e-18)
(-3.37185 -2.48235 -3.51372e-19)
(-3.43706 -2.38672 0)
(-3.49293 -2.2924 -3.28926e-19)
(-3.53484 -2.20463 0)
(-3.5594 -2.12973 0)
(-3.56359 -2.07547 1.28553e-18)
(-3.55091 -2.04945 -1.57178e-18)
(-3.51922 -2.05732 1.62888e-18)
(-3.44728 -2.12003 0)
(-3.26054 -2.21375 -5.24344e-19)
(-3.55284 -2.29664 -6.15222e-19)
(-3.17818 -2.48506 6.17972e-18)
(-3.24358 -2.38586 -1.5507e-18)
(-3.30523 -2.29093 2.80171e-18)
(-3.35996 -2.20315 1.26916e-18)
(-3.40579 -2.12674 -4.33412e-18)
(-3.44185 -2.06683 0)
(-3.46653 -2.03259 -1.48073e-18)
(-3.48081 -2.02802 0)
(-3.49103 -2.06509 0)
(-3.47858 -2.15807 1.01261e-18)
(-3.35919 -2.3142 3.47469e-20)
(-3.76512 -2.53291 6.97258e-19)
(-3.0576 -2.40991 -2.9895e-18)
(-3.12147 -2.30688 -2.22336e-19)
(-3.18259 -2.21159 0)
(-3.23969 -2.12624 0)
(-3.2923 -2.05431 -4.78719e-18)
(-3.34063 -2.00038 3.03392e-18)
(-3.3862 -1.97062 3.11746e-18)
(-3.43116 -1.97172 1.63807e-18)
(-3.47773 -2.01516 -3.91401e-18)
(-3.52909 -2.11704 -1.02269e-18)
(-3.47462 -2.31577 0)
(-3.9332 -2.65535 7.983e-19)
(-2.94181 -2.34306 -7.2402e-18)
(-3.00604 -2.23397 2.99193e-18)
(-3.06829 -2.13489 3.30888e-18)
(-3.12873 -2.04734 1.78506e-19)
(-3.18824 -1.97394 -3.72648e-19)
(-3.24855 -1.91841 -3.40564e-18)
(-3.31247 -1.88579 -4.99355e-18)
(-3.38382 -1.88232 -1.80886e-18)
(-3.46633 -1.91873 1.74004e-18)
(-3.56717 -2.01367 0)
(-3.59063 -2.21021 2.01838e-18)
(-4.08631 -2.63073 -5.1204e-19)
(-2.82802 -2.28244 7.52418e-18)
(-2.89255 -2.16561 -4.0825e-18)
(-2.95551 -2.06037 -3.7979e-18)
(-3.01818 -1.96743 -6.95391e-18)
(-3.08266 -1.88846 6.85804e-18)
(-3.15194 -1.82606 -1.7803e-19)
(-3.23041 -1.78388 1.04517e-17)
(-3.32396 -1.76732 1.67807e-18)
(-3.43873 -1.78586 2.02352e-18)
(-3.58776 -1.85917 0)
(-3.69196 -2.04031 -1.38803e-18)
(-4.19196 -2.50201 -6.64642e-19)
(-2.71086 -2.22388 0)
(-2.77507 -2.09854 3.9482e-18)
(-2.8375 -1.9858 3.84903e-18)
(-2.90037 -1.88551 -3.93906e-18)
(-2.9667 -1.79832 -1.48848e-19)
(-3.04053 -1.7255 -3.96691e-18)
(-3.12776 -1.66892 -3.60319e-18)
(-3.23664 -1.63231 0)
(-3.37655 -1.62242 -1.87096e-18)
(-3.56774 -1.65757 -1.1718e-18)
(-3.75442 -1.80015 4.49091e-18)
(-4.24604 -2.22685 -9.66427e-19)
(-2.58181 -2.15864 0)
(-2.64577 -2.02669 0)
(-2.70682 -1.90751 0)
(-2.76781 -1.80012 -1.33183e-17)
(-2.8325 -1.70414 8.50901e-18)
(-2.90567 -1.6196 8.2412e-18)
(-2.99446 -1.54613 0)
(-3.10912 -1.48486 -4.21375e-18)
(-3.2631 -1.43809 0)
(-3.48716 -1.42086 -2.4472e-18)
(-3.73817 -1.48629 -7.83192e-19)
(-4.22923 -1.79743 -1.24133e-18)
(-2.43194 -2.074 0)
(-2.49694 -1.94126 0)
(-2.55666 -1.81988 1.0072e-17)
(-2.61429 -1.70844 1.40788e-17)
(-2.67382 -1.6058 3.84036e-19)
(-2.74059 -1.5109 4.7247e-18)
(-2.82297 -1.421 -2.27257e-18)
(-2.93147 -1.33392 6.45325e-18)
(-3.08372 -1.24537 4.4831e-18)
(-3.3197 -1.16444 2.2682e-18)
(-3.60731 -1.09912 -1.83005e-18)
(-4.09088 -1.07392 -1.91883e-18)
(-2.25733 -1.95766 0)
(-2.32445 -1.83333 0)
(-2.38262 -1.71698 -9.75926e-18)
(-2.43511 -1.60699 5.11961e-18)
(-2.48612 -1.50217 -4.60052e-18)
(-2.5407 -1.40101 -4.66923e-18)
(-2.60869 -1.29888 4.86734e-18)
(-2.69831 -1.19061 0)
(-2.82998 -1.06376 -4.48851e-18)
(-3.03258 -0.916931 -2.39131e-18)
(-3.33165 -0.690315 2.28809e-18)
(-3.67827 0.0210135 -4.54656e-18)
(-2.22388 0.22721 1.06358e-19)
(-1.93153 0.25255 0)
(-1.75374 0.337187 0)
(-1.65995 0.44803 6.77818e-19)
(-1.58595 0.569668 -8.27973e-19)
(-1.65877 0.6753 0)
(-1.80477 0.999056 0)
(-1.55724 1.86835 4.46686e-19)
(-1.77616 2.76888 1.00984e-18)
(-2.22956 3.0404 7.58854e-19)
(-2.37846 3.33011 -7.12702e-19)
(-2.52851 3.60117 7.79028e-19)
(-2.75588 -0.426686 -5.77567e-19)
(-2.37375 -0.234699 0)
(-2.38124 0.0353334 0)
(-2.45849 0.378141 -1.18489e-18)
(-2.4634 0.890763 1.71276e-18)
(-2.57564 1.73744 -1.60861e-18)
(-2.89972 2.47244 7.6399e-19)
(-2.93033 2.86696 6.95574e-19)
(-2.99268 3.03323 -5.13939e-19)
(-3.01506 3.07023 7.18263e-19)
(-3.01648 3.17276 0)
(-2.9948 3.29034 -1.48353e-18)
(-3.03758 -0.359425 3.35494e-19)
(-2.75829 0.00127866 0)
(-2.83392 0.535336 0)
(-2.94144 1.2074 -7.84768e-19)
(-3.11547 1.93686 5.13942e-19)
(-3.16683 2.47052 -1.42357e-18)
(-3.16996 2.81718 0)
(-3.05621 3.01899 -3.4136e-18)
(-2.95878 3.13491 3.4352e-18)
(-2.87718 3.20224 -1.01696e-18)
(-2.79885 3.28809 -2.50171e-18)
(-2.71771 3.3715 3.46134e-18)
(-3.32573 -0.209194 -9.02641e-19)
(-3.20032 0.289172 1.37964e-18)
(-3.33053 0.940413 0)
(-3.41131 1.62017 7.61647e-19)
(-3.42477 2.19419 -6.40025e-19)
(-3.33703 2.57139 1.34663e-18)
(-3.22481 2.79795 0)
(-3.08071 2.95511 -2.06984e-18)
(-2.96254 3.04423 -4.8751e-18)
(-2.86017 3.10741 3.01878e-18)
(-2.76327 3.17547 2.9268e-18)
(-2.6686 3.23925 -5.88359e-18)
(-3.51081 0.0408555 1.25542e-18)
(-3.5199 0.567254 -1.10223e-18)
(-3.6153 1.18774 2.22719e-18)
(-3.61343 1.79311 0)
(-3.52574 2.25015 -5.98004e-18)
(-3.38327 2.5345 5.8803e-18)
(-3.23165 2.71786 2.74398e-18)
(-3.07704 2.83271 2.00343e-18)
(-2.93675 2.91392 0)
(-2.81201 2.98081 0)
(-2.69666 3.04728 0)
(-2.58813 3.1126 -6.10648e-19)
(-3.66564 0.267528 3.67094e-18)
(-3.75875 0.780246 0)
(-3.80085 1.33383 -1.84538e-18)
(-3.73218 1.84446 4.15999e-18)
(-3.58834 2.2104 3.29133e-18)
(-3.41299 2.44195 -6.29342e-18)
(-3.23581 2.59551 2.88735e-18)
(-3.06411 2.70451 -1.00958e-17)
(-2.90765 2.78788 -1.25138e-19)
(-2.76704 2.85919 -3.49104e-19)
(-2.63859 2.92697 2.41502e-19)
(-2.52008 2.99281 1.0077e-17)
(-3.82513 0.45165 -5.42048e-18)
(-3.98158 0.927022 3.48093e-18)
(-3.96411 1.40248 -5.38896e-18)
(-3.84747 1.82232 -3.93855e-18)
(-3.66288 2.12217 -7.38829e-18)
(-3.45755 2.32234 -3.90213e-18)
(-3.25508 2.4643 -5.81755e-18)
(-3.06434 2.57225 9.68803e-18)
(-2.89044 2.65995 0)
(-2.73366 2.73662 8.37376e-18)
(-2.59151 2.80797 -1.17238e-17)
(-2.46185 2.87606 3.92031e-18)
(-4.01109 0.610157 -2.93678e-18)
(-4.2144 1.02101 -4.95253e-18)
(-4.13722 1.41123 7.33139e-18)
(-3.97977 1.75003 0)
(-3.75868 2.00208 -4.07439e-18)
(-3.52234 2.1855 6.15954e-18)
(-3.29281 2.32547 -2.93338e-19)
(-3.07916 2.43786 1.01151e-19)
(-2.88496 2.53223 -4.84241e-18)
(-2.71028 2.61509 -9.02971e-18)
(-2.55307 2.69065 4.01979e-18)
(-2.41107 2.76121 -4.03956e-18)
(-4.19058 0.712786 2.19733e-18)
(-4.45646 1.07431 0)
(-4.31202 1.37259 0)
(-4.11194 1.63805 0)
(-3.85686 1.85531 3.47904e-18)
(-3.59042 2.0314 0)
(-3.33423 2.17579 -3.78475e-19)
(-3.09714 2.29657 1.11631e-17)
(-2.88226 2.39966 2.52472e-19)
(-2.68956 2.48971 4.6653e-18)
(-2.51719 2.57007 -4.64311e-18)
(-2.36269 2.64323 1.36173e-17)
(-4.47732 0.811687 7.08389e-20)
(-4.6931 1.05422 8.03923e-18)
(-4.44238 1.25421 -2.41712e-18)
(-4.18135 1.47276 0)
(-3.89527 1.67179 0)
(-3.60693 1.8476 0)
(-3.33406 2.00107 0)
(-3.08267 2.1339 5.96899e-18)
(-2.85487 2.24861 -2.26497e-17)
(-2.65051 2.34824 -1.10399e-17)
(-2.46797 2.43534 1.05261e-17)
(-2.30477 2.51257 5.56198e-18)
(-4.56904 0.966256 -6.69173e-18)
(-4.68782 0.94846 -4.5706e-18)
(-4.3577 1.04087 -2.70006e-18)
(-4.04396 1.23083 0)
(-3.75721 1.426 0)
(-3.47932 1.61202 7.45039e-18)
(-3.21948 1.78175 -1.3696e-17)
(-2.97945 1.93223 2.58529e-17)
(-2.75984 2.0633 1.81202e-17)
(-2.56071 2.17678 1.12314e-17)
(-2.38125 2.27431 -1.0801e-17)
(-2.21954 2.35882 6.07743e-19)
(-4.16924 0.386925 -1.8711e-18)
(-4.10416 0.566807 0)