/*--------------------------------*- C++ -*----------------------------------*\
| =========                 |                                                 |
| \\      /  F ield         | OpenFOAM: The Open Source CFD Toolbox           |
|  \\    /   O peration     | Version:  v1912                                 |
|   \\  /    A nd           | Website:  www.openfoam.com                      |
|    \\/     M anipulation  |                                                 |
\*---------------------------------------------------------------------------*/
FoamFile
{
    version     2.0;
    format      ascii;
    class       volScalarField;
    location    "350";
    object      epsilon;
}
// * * * * * * * * * * * * * * * * * * * * * * * * * * * * * * * * * * * * * //

dimensions      [0 2 -3 0 0 0 0];


internalField   nonuniform List<scalar> 
3072
(
3.88859
3.1286
3.80751
3.77902
3.3678
2.92863
3.50174
11.0992
35.4007
50.1383
57.2984
62.715
8.41624
7.29559
6.09969
5.82871
7.04867
16.0195
24.9586
27.6394
36.2619
39.763
40.8672
41.582
10.7028
8.76577
12.4163
17.2838
19.2601
20.3731
24.2372
27.8796
31.5789
32.7576
34.0785
34.9507
15.4514
12.6054
15.8331
17.1413
18.1303
20.4759
24.2914
27.33
29.2399
30.3297
31.4117
32.1832
17.5802
14.4545
16.2154
16.7819
18.3682
21.2574
24.686
27.1272
28.591
29.5384
30.3961
31.0333
18.5805
14.5871
15.8794
16.8808
19.1142
22.3074
25.2601
27.3456
28.641
29.4683
30.1468
30.6721
18.3362
13.848
15.0306
17.2428
20.3049
23.6256
26.3816
28.2339
29.3892
30.1448
30.7386
31.2008
17.942
13.0542
15.2649
18.8566
23.0566
26.6912
29.3395
31.0112
31.9913
32.567
32.9474
33.2171
18.2665
13.6684
18.2268
24.4698
30.2749
34.3925
36.838
38.0245
38.4235
38.362
38.0856
37.7298
19.8871
17.534
29.4014
40.2242
47.7355
51.7017
52.9117
52.4145
50.9752
49.1361
47.2392
45.4509
24.3018
34.7395
59.6804
75.4002
81.3533
81.458
78.4763
74.0487
69.1469
64.2985
59.8194
55.8272
112.558
108.113
119.44
122.888
120.063
112.508
103.928
95.2179
86.8962
79.1525
72.1852
66.029
65.5061
66.887
66.5716
65.8953
63.8953
60.1141
54.9229
48.0142
39.6021
29.9309
19.801
25.3597
41.9586
42.1546
42.144
42.1097
42.3766
43.345
45.5878
49.5759
54.7081
60.4101
64.8908
80.2074
35.4621
35.7199
35.7352
35.7207
36.1643
37.5318
40.3104
45.1805
53.1317
65.3751
84.4886
125.373
32.6461
32.9183
33.0919
33.2999
33.8714
35.2474
38.0317
43.1099
51.8228
66.846
95.3348
158.189
31.4387
31.6812
31.836
32.0478
32.5938
33.8743
36.4971
41.4273
50.3333
66.7883
101.308
183.277
31.0402
31.2849
31.4616
31.7052
32.2537
33.4834
35.9975
40.7522
49.5254
66.3877
104.679
206.029
31.5429
31.7929
32.0003
32.27
32.7942
33.9158
36.2189
40.705
49.2324
65.9087
106.283
225.915
33.4046
33.5395
33.6684
33.867
34.2916
35.239
37.2579
41.3497
49.4588
65.9026
106.886
250.203
37.3626
37.0227
36.752
36.6446
36.8276
37.4767
39.1036
42.6939
50.2499
66.2531
107.965
278.471
43.8595
42.5048
41.4069
40.6194
40.2839
40.5879
41.7159
44.6803
51.525
66.8833
109.087
308.486
52.3894
49.5269
47.2181
45.4769
44.3571
44.1476
44.8573
47.1278
53.0511
67.5966
110.743
346.006
60.7401
56.3658
52.8531
50.1956
48.3699
47.5542
47.9399
49.5445
54.1336
67.1948
110.613
408.754
3.89637
3.13459
3.81106
3.78238
3.37094
2.9285
3.49661
11.0365
35.3231
50.0784
57.2443
62.6607
8.40927
7.28981
6.09278
5.82314
7.03466
15.9772
24.9357
27.6059
36.2287
39.7331
40.838
41.5531
10.6859
8.74707
12.3811
17.2575
19.2577
20.359
24.2114
27.8492
31.5509
32.7299
34.0513
34.9247
15.4255
12.583
15.8116
17.1233
18.1192
20.4542
24.263
27.3016
29.2145
30.3035
31.3851
32.158
17.5517
14.4323
16.1987
16.7671
18.3501
21.2294
24.6593
27.1038
28.5682
29.5147
30.3717
31.0093
18.5498
14.5689
15.8637
16.8642
19.0919
22.2846
25.2388
27.3248
28.6208
29.4475
30.1252
30.6501
18.3146
13.8347
15.0177
17.2275
20.2876
23.6086
26.3651
28.2178
29.3727
30.1268
30.7193
31.181
17.9327
13.0473
15.2556
18.8473
23.0484
26.6834
29.3313
31.0021
31.9808
32.5544
32.9331
33.2015
18.264
13.6661
18.2271
24.4742
30.2824
34.3999
36.8433
38.0271
38.4232
38.3584
38.0792
37.721
19.8927
17.5403
29.4167
40.2492
47.7662
51.7313
52.9369
52.434
50.9889
49.1444
47.2429
45.4509
24.3122
34.755
59.7122
75.4431
81.3991
81.5017
78.5147
74.0808
69.1722
64.3175
59.8327
55.8357
112.57
108.129
119.46
122.918
120.097
112.544
103.963
95.2495
86.9236
79.1751
72.203
66.0424
65.4561
66.8395
66.5274
65.8581
63.8642
60.0881
54.9027
47.9985
39.5913
29.924
19.797
25.3535
41.9308
42.1289
42.1219
42.0908
42.3605
43.3309
45.5753
49.5637
54.6958
60.3981
64.8787
80.1912
35.4381
35.6975
35.7151
35.7028
36.1492
37.5183
40.2981
45.1688
53.1199
65.3623
84.4735
125.351
32.6227
32.897
33.0724
33.2823
33.8557
35.2332
38.0186
43.0975
51.8105
66.8329
95.3184
158.159
31.416
31.6602
31.8164
32.0298
32.5773
33.8592
36.4831
41.4141
50.3204
66.7749
101.291
183.244
31.0187
31.2643
31.4423
31.6871
32.237
33.468
35.9832
40.7387
49.5122
66.3743
104.662
205.992
31.5231
31.7737
31.9819
32.2527
32.7781
33.9008
36.2048
40.6916
49.2195
65.8952
106.267
225.877
33.3883
33.5232
33.6524
33.8516
34.277
35.2252
37.2448
41.3372
49.4464
65.89
106.87
250.164
37.3521
37.0113
36.7401
36.6327
36.8159
37.4652
39.0924
42.6829
50.2388
66.2411
107.95
278.431
43.8566
42.4997
41.4004
40.612
40.276
40.5797
41.7076
44.6716
51.5158
66.8731
109.073
308.448
52.3939
49.5284
47.2173
45.4743
44.3534
44.1429
44.8523
47.1222
53.0448
67.5888
110.731
345.976
60.7495
56.3719
52.8566
50.1971
48.3699
47.553
47.9383
49.5422
54.1305
67.1903
110.606
408.73
3.89303
3.1298
3.80466
3.77498
3.3625
2.92264
3.49543
11.0815
35.3809
50.1268
57.2915
62.7103
8.40765
7.28744
6.09054
5.81785
7.03404
15.9904
24.947
27.6285
36.2552
39.7591
40.8646
41.5799
10.6874
8.75266
12.3954
17.2621
19.245
20.3649
24.2293
27.8733
31.5748
32.7546
34.0764
34.9494
15.4359
12.5916
15.8163
17.1242
18.1211
20.4687
24.2844
27.3251
29.2368
30.3273
31.4098
32.1823
17.5673
14.4415
16.203
16.7713
18.3601
21.2513
24.6807
27.1236
28.5885
29.5365
30.3948
31.0327
18.5716
14.5772
15.8686
16.8717
19.1078
22.3025
25.2561
27.3428
28.6393
29.4674
30.1465
30.6724
18.3314
13.8421
15.0237
17.2366
20.301
23.6231
26.3799
28.2332
29.3893
30.1454
30.7397
31.2023
17.9444
13.0522
15.2613
18.855
23.0573
26.6934
29.3428
31.0151
31.9956
32.5713
32.9516
33.2212
18.2716
13.6692
18.2292
24.4758
30.2839
34.4033
36.8496
38.0361
38.4348
38.3723
38.0948
37.7379
19.8949
17.5393
29.4115
40.24
47.7559
51.724
52.9341
52.4356
50.9941
49.1528
47.2535
45.463
24.3117
34.7505
59.6979
75.4231
81.3789
81.4849
78.5032
74.0743
69.1702
64.319
59.8369
55.842
112.584
108.128
119.453
122.901
120.079
112.526
103.949
95.239
86.9168
79.1715
72.2021
66.0435
65.5043
66.8859
66.5712
65.8955
63.896
60.114
54.9229
48.0133
39.6017
29.9289
19.7988
25.3551
41.9569
42.153
42.1426
42.1084
42.3755
43.3435
45.5857
49.5734
54.7049
60.4066
64.8843
80.1981
35.4617
35.7199
35.7359
35.7219
36.166
37.5335
40.3121
45.1821
53.1328
65.3755
84.4865
125.367
32.6461
32.9192
33.0935
33.3022
33.8742
35.2506
38.0351
43.1134
51.8261
66.8485
95.3369
158.189
31.439
31.6825
31.8381
32.0506
32.5972
33.8783
36.5015
41.4321
50.3385
66.7938
101.313
183.281
31.0412
31.2866
31.4641
31.7083
32.2573
33.4876
36.0022
40.7576
49.5315
66.3945
104.686
206.038
31.5449
31.7955
32.0033
32.2734
32.7981
33.9202
36.2238
40.7105
49.2388
65.9165
106.292
225.929
33.4087
33.5436
33.6725
33.8711
34.2959
35.2435
37.2628
41.3553
49.4655
65.9108
106.897
250.223
37.3697
37.029
36.7576
36.6498
36.8325
37.4815
39.1086
42.6995
50.2565
66.2615
107.977
278.497
43.8697
42.5134
41.4142
40.6257
40.2895
40.5932
41.7212
44.686
51.5317
66.8918
109.099
308.52
52.4016
49.5371
47.2265
45.484
44.3633
44.1532
44.8628
47.1336
53.0579
67.6052
110.756
346.05
60.7522
56.3759
52.8615
50.2028
48.3762
47.56
47.9456
49.5504
54.1406
67.2036
110.626
408.822
3.89659
3.13481
3.81144
3.78279
3.37133
2.92903
3.49753
11.0423
35.3346
50.0913
57.2579
62.675
8.4101
7.2907
6.09355
5.82414
7.03677
15.983
24.9424
27.6133
36.2371
39.7418
40.8465
41.5615
10.6872
8.74824
12.3828
17.2618
19.2639
20.365
24.2171
27.8556
31.5575
32.7364
34.0575
34.9307
15.4264
12.5849
15.8153
17.1281
18.1244
20.4591
24.268
27.3072
29.2198
30.3088
31.3904
32.1631
17.5523
14.4346
16.2027
16.7715
18.3542
21.2328
24.6632
27.1078
28.5723
29.5191
30.3762
31.0138
18.5497
14.5711
15.8674
16.8678
19.0947
22.2875
25.242
27.3282
28.6242
29.4511
30.129
30.6539
18.3146
13.8366
15.0205
17.2304
20.2901
23.6112
26.3679
28.2205
29.3753
30.1298
30.7225
31.1842
17.9326
13.0488
15.2579
18.8496
23.0508
26.6858
29.3336
31.0042
31.9827
32.5566
32.9354
33.2038
18.2644
13.6676
18.2292
24.4766
30.2849
34.4023
36.8454
38.0287
38.4246
38.3597
38.0804
37.7223
19.8943
17.5425
29.4195
40.2521
47.7691
51.7336
52.9385
52.435
50.9894
49.1447
47.2431
45.451
24.3159
34.7593
59.7156
75.4452
81.4004
81.5022
78.5146
74.0801
69.1712
64.3163
59.8315
55.8347
112.588
108.135
119.462
122.918
120.096
112.542
103.961
95.2473
86.921
79.1725
72.2007
66.0404
65.4705
66.854
66.5416
65.8717
63.877
60.0998
54.9129
48.0071
39.5975
29.9288
19.8005
25.3593
41.9389
42.1368
42.1294
42.098
42.3674
43.3377
45.5821
49.5709
54.7035
60.4057
64.8879
80.2047
35.4439
35.703
35.7203
35.7078
36.1539
37.5228
40.3025
45.1733
53.1249
65.3683
84.4822
125.365
32.6275
32.9015
33.0768
33.2864
33.8594
35.2367
38.022
43.101
51.8144
66.8379
95.3257
158.176
31.4202
31.6642
31.8201
32.0333
32.5805
33.8622
36.486
41.417
50.3234
66.7786
101.297
183.26
31.0224
31.2677
31.4455
31.6901
32.2398
33.4707
35.9858
40.7413
49.515
66.3775
104.667
206.007
31.5262
31.7766
31.9846
32.2552
32.7804
33.9031
36.2071
40.694
49.222
65.8981
106.271
225.891
33.3905
33.5252
33.6543
33.8534
34.2787
35.2269
37.2466
41.3391
49.4487
65.8927
106.874
250.178
37.3533
37.0124
36.7412
36.6337
36.8169
37.4663
39.0936
42.6844
50.2406
66.2434
107.953
278.442
43.8568
42.4999
41.4006
40.6123
40.2764
40.5802
41.7082
44.6725
51.517
66.8747
109.075
308.455
52.3931
49.5278
47.2169
45.4742
44.3535
44.1431
44.8526
47.1226
53.0452
67.5894
110.732
345.975
60.748
56.371
52.8561
50.1971
48.37
47.5532
47.9385
49.5422
54.1302
67.1896
110.604
408.719
155.143
148.376
140.859
132.784
125.424
117.633
109.619
101.548
93.5535
85.6697
78.2633
71.4524
95.7653
97.5457
98.2141
97.9733
97.2384
95.642
93.2942
90.1175
85.7921
80.3815
74.8529
69.3311
67.2272
68.7232
69.8312
70.549
71.1265
71.2414
70.9004
70.0283
68.5474
66.6483
64.2233
61.1434
52.1841
52.784
53.1422
53.2832
53.3955
53.4392
53.3827
53.1935
52.82
52.2488
51.4819
50.5461
65.417
60.3883
56.3328
53.2517
51.1469
49.9901
50.1199
51.09
54.1076
62.5603
85.6014
168.41
64.1454
59.8137
56.3255
53.7106
51.9319
50.837
50.7529
51.2439
52.8759
56.9968
67.2637
91.4421
57.8967
55.2917
53.163
51.551
50.3572
49.4929
49.0596
49.0783
49.8608
51.4559
55.9741
64.4723
49.7452
48.9088
47.9071
46.8587
45.8298
44.9301
44.3032
44.1078
44.6259
45.3869
47.6138
50.9399
155.151
148.378
140.861
132.79
125.436
117.65
109.639
101.568
93.5741
85.6887
78.2797
71.4659
95.7693
97.5467
98.2125
97.9727
97.2404
95.6474
93.3016
90.1276
85.8057
80.3951
74.8656
69.3424
67.2315
68.7259
69.8326
70.5502
71.1282
71.245
70.9052
70.0345
68.5549
66.6562
64.2316
61.152
52.186
52.7863
53.1442
53.2853
53.3979
53.4424
53.3866
53.1982
52.8255
52.255
51.4886
50.5534
65.4276
60.3963
56.3387
53.2558
51.1498
49.9918
50.1214
51.0911
54.1081
62.5599
85.5992
168.403
64.155
59.8217
56.3321
53.7161
51.9366
50.8411
50.7568
51.2477
52.8796
57
67.2662
91.4426
57.9048
55.2992
53.1701
51.5578
50.3637
49.4993
49.066
49.0848
49.8671
51.4622
55.9798
64.4774
49.753
48.9168
47.9152
46.8669
45.8381
44.9385
44.3116
44.1162
44.6342
45.3948
47.6212
50.9466
155.145
148.377
140.858
132.783
125.426
117.639
109.628
101.559
93.567
85.6835
78.2763
71.4641
95.7691
97.5483
98.2144
97.973
97.2386
95.6437
93.2973
90.1227
85.8004
80.3908
74.8623
69.34
67.2357
68.7302
69.8366
70.5534
71.1305
71.2454
70.9047
70.0334
68.5534
66.6546
64.2299
61.1502
52.1919
52.7916
53.149
53.2893
53.4012
53.4445
53.388
53.1991
52.8259
52.2549
51.4881
50.5525
65.4271
60.397
56.3404
53.2585
51.1531
49.996
50.1259
51.0963
54.1148
62.5691
85.6136
168.438
64.1534
59.8209
56.332
53.7169
51.938
50.8431
50.7594
51.2507
52.8835
57.0058
67.2754
91.4596
57.9032
55.298
53.1694
51.5575
50.3638
49.4998
49.0674
49.0866
49.8699
51.4664
55.9868
64.488
49.7521
48.916
47.9146
46.8667
45.8385
44.9396
44.3138
44.1195
44.6387
45.4008
47.6291
50.9567
155.171
148.39
140.868
132.796
125.44
117.653
109.641
101.569
93.5735
85.6875
78.2783
71.4648
95.7883
97.5658
98.23
97.9889
97.2549
95.6597
93.3125
90.1361
85.8104
80.3985
74.8684
69.3447
67.249
68.7444
69.8511
70.5684
71.1461
71.2613
70.9204
70.0482
68.5668
66.6671
64.2409
61.1593
52.2038
52.8046
53.1626
53.3035
53.416
53.4595
53.4029
53.2136
52.8396
52.2679
51.5002
50.5634
65.427
60.3963
56.3392
53.2568
51.151
49.9929
50.1221
51.0911
54.1074
62.5583
85.5967
168.4
64.1575
59.8245
56.3352
53.7192
51.9393
50.8432
50.7574
51.2477
52.8784
56.9976
67.2626
91.4378
57.9115
55.3057
53.176
51.5627
50.3673
49.5017
49.0662
49.0839
49.8646
51.4586
55.9749
64.4716
49.7615
48.9242
47.921
46.8709
45.8401
44.9387
44.31
44.1126
44.6295
45.3894
47.6155
50.9416
42.6007
42.4243
42.217
42.014
41.9172
41.8663
41.8386
41.8221
41.8171
41.8341
41.8785
41.939
35.2376
34.9885
34.7959
34.6785
34.6608
34.6914
34.7757
34.9295
35.1548
35.4089
35.588
35.5323
29.7793
29.7207
29.7224
29.7649
29.8269
29.8823
29.9651
30.1334
30.4223
30.8281
31.2701
31.5174
25.6329
25.7965
25.9853
26.1467
26.2301
26.1955
26.0947
26.0606
26.2078
26.8021
28.2593
30.9432
41.9021
40.3346
38.7495
37.8596
37.303
37.2577
37.6823
38.5285
39.6724
40.8411
42.1266
42.8978
35.0308
32.0159
30.0592
29.4901
29.6007
30.3611
31.5567
32.9692
34.2394
35.1954
35.8702
35.8871
31.3102
25.639
23.3955
23.0657
23.6359
24.8222
26.3602
27.9073
29.1046
29.8904
30.3157
30.2048
33.3069
21.1725
18.4167
18.1641
18.9695
20.3154
21.9173
23.4247
24.54
25.256
25.6485
25.6937
42.6028
42.4266
42.2194
42.017
41.9208
41.8706
41.8435
41.8278
41.8238
41.8416
41.887
41.9485
35.2397
34.991
34.799
34.6824
34.6656
34.6968
34.7817
34.9363
35.1627
35.418
35.5986
35.5445
29.7817
29.7237
29.7263
29.7697
29.8327
29.8888
29.9722
30.1414
30.4316
30.8389
31.2827
31.5317
25.6356
25.7998
25.9897
26.1523
26.2366
26.2028
26.1026
26.0693
26.2179
26.8134
28.2729
30.9599
41.9124
40.3444
38.7591
37.8691
37.3124
37.267
37.6911
38.5367
39.6801
40.8482
42.1329
42.9037
35.0434
32.0266
30.069
29.4993
29.6095
30.3697
31.5649
32.9766
34.2462
35.2015
35.8758
35.8921
31.325
25.6499
23.4047
23.0742
23.6438
24.8297
26.3674
27.9138
29.1104
29.8959
30.3207
30.2091
33.3264
21.1833
18.425
18.1716
18.9764
20.322
21.9237
23.4304
24.5452
25.2608
25.6529
25.6976
42.6077
42.4309
42.2231
42.0199
41.9232
41.8724
41.8449
41.8288
41.8243
41.8417
41.8868
41.9485
35.244
34.9947
34.802
34.6849
34.6677
34.6987
34.7834
34.9378
35.164
35.4193
35.5999
35.5469
29.7854
29.7268
29.729
29.772
29.8348
29.8909
29.9745
30.1438
30.4344
30.842
31.2866
31.5369
25.6388
25.8026
25.9921
26.1544
26.2387
26.2052
26.1055
26.0727
26.2226
26.8191
28.2803
30.9701
41.9134
40.3459
38.7615
37.8725
37.3169
37.2724
37.6979
38.5445
39.6888
40.858
42.1442
42.9157
35.0474
32.031
30.0744
29.5058
29.6172
30.3782
31.5742
32.9868
34.2571
35.2132
35.8879
35.9045
31.3326
25.6565
23.4119
23.0823
23.6528
24.8395
26.3779
27.9249
29.1219
29.9076
30.3325
30.2206
33.3393
21.1916
18.433
18.18
18.9856
20.3318
21.9341
23.4413
24.5562
25.2718
25.6636
25.7078
42.6206
42.4441
42.2364
42.0332
41.9363
41.885
41.8568
41.8398
41.8341
41.8504
41.8938
41.953
35.2563
35.0067
34.8138
34.6961
34.6779
34.708
34.7914
34.9444
35.1688
35.422
35.6
35.5428
29.7963
29.7371
29.7386
29.7806
29.842
29.8964
29.9781
30.1452
30.4331
30.838
31.2791
31.5256
25.648
25.8109
25.9994
26.1604
26.2431
26.2071
26.105
26.0695
26.2152
26.8088
28.2657
30.9499
41.9145
40.3457
38.7589
37.8674
37.3092
37.2626
37.6855
38.5306
39.6739
40.8424
42.1284
42.9001
35.04
32.0239
30.0656
29.4952
29.6044
30.364
31.5584
32.9701
34.24
35.1963
35.8719
35.8894
31.3173
25.6447
23.3998
23.0691
23.6384
24.8239
26.3612
27.9078
29.1049
29.8911
30.3172
30.2071
33.3133
21.1764
18.4195
18.1664
18.9712
20.3165
21.9179
23.425
24.5404
25.2567
25.6501
25.696
22.2704
22.6271
22.9521
23.1722
23.2074
22.9458
22.453
21.8302
21.1575
20.5322
20.3428
23.0112
19.3922
19.8799
20.2752
20.5042
20.4233
19.8552
18.8291
17.3399
15.2736
12.2488
7.18096
2.85532
16.8136
17.373
17.7942
17.9992
17.7806
16.9331
15.4311
13.2314
10.253
6.4593
2.7551
1.65609
14.4593
15.0427
15.4639
15.6332
15.3101
14.2911
12.5282
10.0376
6.95984
3.80079
1.76478
1.54752
12.3152
12.8893
13.296
13.4345
13.0658
12.0098
10.2261
7.82219
5.12671
2.80852
1.53596
1.51253
10.3957
10.9387
11.3236
11.4428
11.085
10.1056
8.4762
6.36694
4.17159
2.45832
1.50833
1.44435
8.72412
9.22332
9.58338
9.69381
9.38391
8.55472
7.16902
5.41731
3.67194
2.35413
1.55143
1.3067
7.32737
7.77794
8.1128
8.21858
7.97457
7.32815
6.20484
4.79231
3.40704
2.34367
1.6131
1.1204
6.24485
6.65083
6.96037
7.06809
6.89301
6.41222
5.52928
4.40354
3.29278
2.38666
1.66105
0.887737
5.57115
5.94868
6.24622
6.36278
6.24808
5.88313
5.18249
4.27371
3.3282
2.48989
1.68149
0.625323
5.71426
6.12065
6.45246
6.59814
6.51552
6.16445
5.54416
4.72666
3.77809
2.79478
1.68129
0.359154
10.5779
11.4561
12.2301
12.5878
12.4225
11.7358
10.5649
8.88893
6.73384
4.21969
1.99613
0.483524
51.6586
17.5389
14.4603
14.333
15.2383
16.5882
18.1149
19.5271
20.5862
21.2989
21.7643
22.0271
29.4624
12.9945
11.1756
11.2917
12.2122
13.4858
14.8791
16.1736
17.1804
17.9211
18.4724
18.9257
20.1158
9.6537
8.58811
8.86988
9.74964
10.9069
12.1492
13.3141
14.2623
15.0123
15.6384
16.2212
14.3943
7.26449
6.5959
6.94713
7.75283
8.77654
9.86696
10.898
11.7777
12.5132
13.1711
13.8121
10.4659
5.52567
5.07671
5.43066
6.14547
7.03264
7.97641
8.87986
9.67816
10.3756
11.0215
11.666
7.59501
4.23261
3.91667
4.2423
4.86395
5.6219
6.4291
7.21294
7.92411
8.56438
9.17074
9.78156
5.47523
3.2665
3.02726
3.3163
3.8549
4.49828
5.18331
5.85817
6.48379
7.05869
7.60995
8.1662
3.91501
2.52288
2.34235
2.59907
3.07499
3.62396
4.20528
4.78607
5.33467
5.84574
6.33803
6.83309
2.7182
1.90711
1.80775
2.05437
2.49393
2.97357
3.47418
3.98149
4.4694
4.92792
5.36854
5.80805
1.76857
1.37436
1.39
1.68004
2.12203
2.56772
3.01805
3.47962
3.92904
4.35551
4.76644
5.17107
1.04007
0.945246
1.12879
1.54815
2.0437
2.50775
2.96897
3.45702
3.94418
4.40972
4.85612
5.28866
0.782684
1.04551
1.8095
2.70499
3.46953
4.19928
5.01392
5.9789
6.99242
7.95143
8.84471
9.71014
22.2732
22.6308
22.957
23.1783
23.2146
22.9538
22.4614
21.8389
21.1667
20.5418
20.3528
23.0226
19.3949
19.8839
20.2803
20.5106
20.431
19.8635
18.8374
17.3479
15.2808
12.2544
7.18395
2.85699
16.8163
17.3771
17.7994
18.0056
17.7884
16.9414
15.4391
13.2383
10.2583
6.46228
2.7565
1.65742
14.4618
15.0466
15.4689
15.6395
15.3177
14.299
12.5356
10.0436
6.96388
3.80286
1.76601
1.54888
12.3177
12.8929
13.3007
13.4403
13.0728
12.0171
10.2328
7.82741
5.13008
2.81038
1.53723
1.51389
10.398
10.942
11.3278
11.4481
11.0912
10.1121
8.48214
6.37154
4.17462
2.46018
1.50966
1.44574
8.72628
9.2262
9.58716
9.69847
9.38936
8.5604
7.17428
5.42141
3.67477
2.35604
1.5529
1.30799
7.32938
7.78046
8.11611
8.22263
7.97921
7.33305
6.20949
4.79602
3.40976
2.34564
1.6147
1.12154
6.24672
6.65301
6.96332
7.07161
6.89699
6.41644
5.53344
4.40695
3.29545
2.38872
1.66278
0.888672
5.57285
5.95067
6.24893
6.366
6.25166
5.88694
5.18632
4.27699
3.33092
2.49211
1.68329
0.626019
5.71579
6.12271
6.4553
6.60152
6.5193
6.16842
5.54813
4.73023
3.78123
2.79738
1.68313
0.35958
10.5806
11.4601
12.2355
12.5945
12.4299
11.7435
10.5725
8.89578
6.73965
4.22392
1.99838
0.484137
51.6933
17.5491
14.4676
14.3396
15.2443
16.5941
18.1206
19.5323
20.591
21.3032
21.7681
22.0304
29.4838
13.0029
11.1819
11.2974
12.2175
13.491
14.8842
16.1784
17.1848
17.9251
18.4759
18.9286
20.1312
9.66047
8.5935
8.87484
9.75442
10.9116
12.1539
13.3186
14.2664
15.016
15.6416
16.2238
14.4059
7.27
6.60055
6.9515
7.75714
8.78084
9.87125
10.9022
11.7816
12.5167
13.1742
13.8145
10.4747
5.53021
5.0807
5.43455
6.14938
7.03662
7.98042
8.88381
9.68191
10.379
11.0245
11.6685
7.60175
4.23635
3.92009
4.24576
4.86752
5.62559
6.43287
7.2167
7.92773
8.56773
9.17369
9.78405
5.48028
3.26956
3.03018
3.31938
3.85817
4.50171
5.18686
5.86176
6.48729
7.06199
7.61293
8.16876
3.91876
2.52536
2.34483
2.60182
3.078
3.62716
4.20863
4.78951
5.33808
5.84901
6.34105
6.83577
2.72091
1.90908
1.80984
2.05683
2.49672
2.97658
3.47737
3.98481
4.47275
4.93119
5.37162
5.81088
1.77039
1.37589
1.39177
1.68233
2.12473
2.57067
3.02119
3.48294
3.93242
4.35887
4.76968
5.17414
1.04117
0.946378
1.13044
1.55052
2.04655
2.5109
2.97236
3.46068
3.94801
4.41357
4.8599
5.29234
0.783396
1.0467
1.81255
2.70921
3.47448
4.20468
5.01985
5.98554
6.99954
7.95876
8.85208
9.71727
22.276
22.6331
22.959
23.1802
23.2166
22.9564
22.4647
21.8432
21.1724
20.5491
20.3619
23.0335
19.3973
19.8858
20.282
20.5122
20.4328
19.866
18.8407
17.3521
15.2861
12.2602
7.18813
2.85788
16.8183
17.3786
17.8007
18.0069
17.7899
16.9435
15.4419
13.2419
10.2622
6.46562
2.75772
1.65754
14.4637
15.0479
15.47
15.6404
15.3188
14.3006
12.5377
10.0461
6.96639
3.80445
1.76638
1.5489
12.3195
12.8942
13.3016
13.4411
13.0736
12.0183
10.2344
7.82913
5.13157
2.81112
1.53732
1.51391
10.3999
10.9433
11.3288
11.4488
11.0919
10.1129
8.48318
6.37263
4.17545
2.46054
1.50964
1.44575
8.72828
9.22766
9.58822
9.69921
9.39001
8.56101
7.17498
5.4221
3.67521
2.35622
1.55277
1.30799
7.33158
7.78213
8.11736
8.22349
7.97995
7.33361
6.21
4.79647
3.40996
2.34573
1.61454
1.12156
6.24916
6.6549
6.96482
7.07256
6.89792
6.41705
5.53387
4.40734
3.29547
2.38884
1.66279
0.888732
5.57559
5.95288
6.25065
6.36717
6.25273
5.88767
5.18678
4.27733
3.33094
2.49212
1.68336
0.62601
5.71913
6.12544
6.45741
6.60303
6.5206
6.16931
5.54876
4.73063
3.78124
2.79741
1.68315
0.35958
10.5869
11.4656
12.2394
12.5975
12.4323
11.7453
10.5739
8.8966
6.74
4.22392
1.99828
0.484096
51.7184
17.5581
14.4754
14.3476
15.253
16.6033
18.1303
19.5423
20.601
21.313
21.7775
22.039
29.502
13.0107
11.1888
11.3045
12.2252
13.4991
14.8928
16.1872
17.1936
17.9336
18.4839
18.9357
20.1452
9.66695
8.59929
8.88081
9.76085
10.9185
12.1611
13.3261
14.2738
15.0231
15.6482
16.2296
14.4165
7.27517
6.60519
6.95632
7.76235
8.78643
9.87714
10.9083
11.7876
12.5224
13.1794
13.8192
10.4827
5.53429
5.08434
5.4383
6.15343
7.04097
7.985
8.88852
9.68658
10.3834
11.0286
11.672
7.60759
4.23955
3.92288
4.24858
4.87055
5.62884
6.43629
7.2202
7.9312
8.57105
9.17671
9.78662
5.48455
3.27211
3.03228
3.32142
3.86034
4.50404
5.1893
5.86425
6.48976
7.06433
7.61502
8.17048
3.92183
2.52738
2.34639
2.60323
3.07948
3.62875
4.21028
4.79117
5.33972
5.85054
6.34239
6.83678
2.72302
1.91063
1.81097
2.05776
2.49769
2.97763
3.47844
3.98586
4.47376
4.9321
5.37238
5.81136
1.77174
1.37695
1.39255
1.68288
2.12532
2.57136
3.02189
3.48357
3.933
4.35934
4.77002
5.17422
1.04195
0.947028
1.13089
1.55084
2.04698
2.51147
2.97294
3.46111
3.94834
4.41381
4.86
5.29217
0.784039
1.04736
1.8129
2.70991
3.47553
4.20604
5.02114
5.98642
7.00024
7.95938
8.8524
9.71718
22.2835
22.6396
22.9642
23.1839
23.2184
22.9552
22.4609
21.8365
21.1624
20.5361
20.3464
23.0161
19.4032
19.8904
20.2855
20.5141
20.4323
19.8629
18.8353
17.3446
15.2769
12.2511
7.18286
2.85685
16.8228
17.3818
17.8028
18.0074
17.7881
16.9395
15.4361
13.2351
10.2556
6.4612
2.75647
1.65731
14.4671
15.05
15.4711
15.6401
15.3163
14.2964
12.5324
10.0407
6.96215
3.80244
1.76584
1.54868
12.3219
12.8955
13.302
13.4402
13.071
12.0143
10.2298
7.82505
5.12882
2.80996
1.5369
1.51366
10.4016
10.944
11.3286
11.4476
11.0893
10.1095
8.47944
6.36951
4.17351
2.45963
1.50923
1.44537
8.72935
9.22798
9.58778
9.69784
9.38762
8.55807
7.17189
5.41962
3.67369
2.35536
1.55232
1.30759
7.33212
7.78213
8.1167
8.22209
7.97783
7.3311
6.2074
4.79441
3.40868
2.34486
1.61399
1.12113
6.24926
6.65466
6.96399
7.07128
6.89599
6.41491
5.53163
4.40551
3.29437
2.38784
1.66195
0.888294
5.57539
5.95242
6.2498
6.36592
6.25101
5.88576
5.18479
4.27568
3.32981
2.49112
1.68238
0.625707
5.71873
6.12483
6.45651
6.60175
6.5188
6.1674
5.54678
4.72894
3.77995
2.79616
1.68219
0.359367
10.5867
11.465
12.2383
12.5949
12.429
11.7416
10.5701
8.89327
6.73714
4.2218
1.99718
0.483781
51.6692
17.5417
14.4622
14.3346
15.2395
16.5891
18.1154
19.5274
20.5867
21.2999
21.766
22.0291
29.4671
12.9962
11.1769
11.2928
12.2131
13.4865
14.8795
16.174
17.1809
17.9223
18.4744
18.9271
20.1184
9.65472
8.58889
8.87061
9.75031
10.9075
12.1496
13.3144
14.2628
15.0133
15.6401
16.2225
14.3957
7.26506
6.59635
6.94758
7.75331
8.77698
9.86731
10.8983
11.7781
12.5139
13.1723
13.8134
10.4667
5.52599
5.07694
5.43091
6.14576
7.03295
7.97667
8.88007
9.67842
10.376
11.0223
11.6671
7.5955
4.23277
3.91675
4.24238
4.86408
5.62207
6.42925
7.21305
7.92422
8.56455
9.17111
9.78224
5.47556
3.26659
3.02725
3.31626
3.8549
4.49831
5.18334
5.85816
6.48375
7.05865
7.61001
8.16645
3.91524
2.52293
2.3423
2.59895
3.07487
3.62387
4.20519
4.78595
5.33451
5.84552
6.33781
6.83298
2.71841
1.90716
1.80768
2.05419
2.49373
2.97337
3.47399
3.98128
4.46913
4.92756
5.3681
5.80763
1.76875
1.37441
1.38994
1.67982
2.12175
2.56743
3.01776
3.47932
3.92867
4.35503
4.76581
5.17038
1.04023
0.945305
1.12872
1.54788
2.04334
2.50738
2.96861
3.45663
3.94371
4.40909
4.8552
5.28753
0.782808
1.04561
1.80922
2.70448
3.46896
4.19879
5.01348
5.97828
6.99147
7.95001
8.84239
9.70688
)
;

boundaryField
{
    rotor
    {
        lowReCorrection 0;
        type            epsilonWallFunction;
        value           nonuniform List<scalar> 
192
(
3.88859
3.1286
3.80751
3.77902
3.3678
2.92863
3.50174
11.0992
35.4007
50.1383
57.2984
62.715
65.5061
66.887
66.5716
65.8953
63.8953
60.1141
54.9229
48.0142
39.6021
29.9309
19.801
25.3597
3.89637
3.13459
3.81106
3.78238
3.37094
2.9285
3.49661
11.0365
35.3231
50.0784
57.2443
62.6607
65.4561
66.8395
66.5274
65.8581
63.8642
60.0881
54.9027
47.9985
39.5913
29.924
19.797
25.3535
3.89303
3.1298
3.80466
3.77498
3.3625
2.92264
3.49543
11.0815
35.3809
50.1268
57.2915
62.7103
65.5043
66.8859
66.5712
65.8955
63.896
60.114
54.9229
48.0133
39.6017
29.9289
19.7988
25.3551
3.89659
3.13481
3.81144
3.78279
3.37133
2.92903
3.49753
11.0423
35.3346
50.0913
57.2579
62.675
65.4705
66.854
66.5416
65.8717
63.877
60.0998
54.9129
48.0071
39.5975
29.9288
19.8005
25.3593
3.88859
8.41624
10.7028
15.4514
17.5802
18.5805
18.3362
17.942
18.2665
19.8871
24.3018
112.558
25.3593
80.2047
125.365
158.176
183.26
206.007
225.891
250.178
278.442
308.455
345.975
408.719
3.89637
8.40927
10.6859
15.4255
17.5517
18.5498
18.3146
17.9327
18.264
19.8927
24.3122
112.57
25.3597
80.2074
125.373
158.189
183.277
206.029
225.915
250.203
278.471
308.486
346.006
408.754
3.89303
8.40765
10.6874
15.4359
17.5673
18.5716
18.3314
17.9444
18.2716
19.8949
24.3117
112.584
25.3535
80.1912
125.351
158.159
183.244
205.992
225.877
250.164
278.431
308.448
345.976
408.73
3.89659
8.4101
10.6872
15.4264
17.5523
18.5497
18.3146
17.9326
18.2644
19.8943
24.3159
112.588
25.3551
80.1981
125.367
158.189
183.281
206.038
225.929
250.223
278.497
308.52
346.05
408.822
)
;
    }
    stator
    {
        lowReCorrection 0;
        type            epsilonWallFunction;
        value           nonuniform List<scalar> 
192
(
10.5779
11.4561
12.2301
12.5878
12.4225
11.7358
10.5649
8.88893
6.73384
4.21969
1.99613
0.483524
0.782684
1.04551
1.8095
2.70499
3.46953
4.19928
5.01392
5.9789
6.99242
7.95143
8.84471
9.71014
10.5806
11.4601
12.2355
12.5945
12.4299
11.7435
10.5725
8.89578
6.73965
4.22392
1.99838
0.484137
0.783396
1.0467
1.81255
2.70921
3.47448
4.20468
5.01985
5.98554
6.99954
7.95876
8.85208
9.71727
10.5869
11.4656
12.2394
12.5975
12.4323
11.7453
10.5739
8.8966
6.74
4.22392
1.99828
0.484096
0.784039
1.04736
1.8129
2.70991
3.47553
4.20604
5.02114
5.98642
7.00024
7.95938
8.8524
9.71718
10.5867
11.465
12.2383
12.5949
12.429
11.7416
10.5701
8.89327
6.73714
4.2218
1.99718
0.483781
0.782808
1.04561
1.80922
2.70448
3.46896
4.19879
5.01348
5.97828
6.99147
7.95001
8.84239
9.70688
51.6586
29.4624
20.1158
14.3943
10.4659
7.59501
5.47523
3.91501
2.7182
1.76857
1.04007
0.782684
23.0112
2.85532
1.65609
1.54752
1.51253
1.44435
1.3067
1.1204
0.887737
0.625323
0.359154
0.483524
51.6933
29.4838
20.1312
14.4059
10.4747
7.60175
5.48028
3.91876
2.72091
1.77039
1.04117
0.783396
23.0226
2.85699
1.65742
1.54888
1.51389
1.44574
1.30799
1.12154
0.888672
0.626019
0.35958
0.484137
51.7184
29.502
20.1452
14.4165
10.4827
7.60759
5.48455
3.92183
2.72302
1.77174
1.04195
0.784039
23.0335
2.85788
1.65754
1.5489
1.51391
1.44575
1.30799
1.12156
0.888732
0.62601
0.35958
0.484096
51.6692
29.4671
20.1184
14.3957
10.4667
7.5955
5.47556
3.91524
2.71841
1.76875
1.04023
0.782808
23.0161
2.85685
1.65731
1.54868
1.51366
1.44537
1.30759
1.12113
0.888294
0.625707
0.359367
0.483781
)
;
    }
    front
    {
        type            empty;
    }
    back
    {
        type            empty;
    }
}


// ************************************************************************* //
