/*--------------------------------*- C++ -*----------------------------------*\
| =========                 |                                                 |
| \\      /  F ield         | OpenFOAM: The Open Source CFD Toolbox           |
|  \\    /   O peration     | Version:  v1912                                 |
|   \\  /    A nd           | Website:  www.openfoam.com                      |
|    \\/     M anipulation  |                                                 |
\*---------------------------------------------------------------------------*/
FoamFile
{
    version     2.0;
    format      ascii;
    class       volScalarField;
    location    "350";
    object      k;
}
// * * * * * * * * * * * * * * * * * * * * * * * * * * * * * * * * * * * * * //

dimensions      [0 2 -2 0 0 0 0];


internalField   nonuniform List<scalar> 
3072
(
0.0356684
0.046207
0.0526374
0.0523732
0.0485067
0.044168
0.049689
0.10673
0.232207
0.293165
0.32052
0.340432
0.0641724
0.116395
0.117936
0.108903
0.0899218
0.122752
0.201624
0.234905
0.328559
0.399405
0.476237
0.546378
0.0804725
0.148678
0.194422
0.212901
0.207712
0.220719
0.296007
0.38021
0.483246
0.57155
0.652797
0.719765
0.109251
0.210302
0.235944
0.234589
0.248543
0.315029
0.414017
0.513056
0.60763
0.688883
0.759533
0.816896
0.12591
0.248358
0.274328
0.280049
0.327615
0.415826
0.516843
0.612713
0.697519
0.769406
0.831209
0.881825
0.137529
0.274022
0.310341
0.338358
0.407016
0.50175
0.599222
0.687102
0.762313
0.826129
0.880889
0.926398
0.143008
0.286844
0.338337
0.396402
0.484177
0.582103
0.674449
0.75458
0.821718
0.878043
0.925958
0.966121
0.147433
0.301219
0.380042
0.475815
0.583912
0.684742
0.770855
0.841286
0.897985
0.944119
0.982527
1.01458
0.155594
0.332672
0.468336
0.611258
0.739811
0.84114
0.916648
0.971779
1.01195
1.04177
1.06498
1.08361
0.171327
0.402562
0.645265
0.840386
0.981242
1.07308
1.12829
1.15905
1.17421
1.17953
1.18024
1.17878
0.203284
0.549471
0.944562
1.18422
1.31055
1.37126
1.39187
1.38867
1.37056
1.3455
1.3184
1.29187
0.585075
0.951664
1.36999
1.56146
1.63001
1.64139
1.627
1.59081
1.545
1.49432
1.44334
1.39442
0.350515
0.355484
0.354379
0.351977
0.344844
0.331137
0.311824
0.285122
0.250808
0.208114
0.158006
0.124447
0.607788
0.654948
0.682618
0.689754
0.682556
0.66744
0.646643
0.617074
0.568417
0.465402
0.340795
0.28885
0.770868
0.804121
0.81866
0.81976
0.81242
0.801419
0.788145
0.770293
0.738587
0.669948
0.505619
0.415966
0.860251
0.890191
0.907287
0.914407
0.915248
0.913792
0.912224
0.910324
0.900573
0.861012
0.718594
0.516059
0.920895
0.949104
0.967293
0.977725
0.983889
0.989846
0.999185
1.01278
1.02161
1.00626
0.896223
0.601851
0.962628
0.990117
1.00977
1.02367
1.03526
1.04892
1.06898
1.09731
1.12894
1.14101
1.07711
0.684963
0.998893
1.02483
1.04489
1.06106
1.0767
1.09648
1.12559
1.16744
1.21875
1.25715
1.23496
0.76394
1.04108
1.06275
1.08056
1.09636
1.11331
1.13632
1.17168
1.22508
1.29583
1.36085
1.37032
0.854982
1.0989
1.11182
1.12337
1.1351
1.14975
1.17216
1.20972
1.27129
1.36077
1.45473
1.48531
0.957363
1.17677
1.17561
1.17635
1.18015
1.18893
1.20693
1.24191
1.30664
1.41227
1.54031
1.60986
1.06604
1.26796
1.24834
1.23404
1.22707
1.23022
1.24199
1.27098
1.33148
1.44336
1.60933
1.75252
1.19432
1.3503
1.31368
1.28573
1.26794
1.26555
1.27363
1.29673
1.3488
1.45266
1.64107
1.89044
1.38244
0.0357145
0.0462685
0.0526718
0.0524063
0.04854
0.0441741
0.0496435
0.106344
0.231864
0.292936
0.32032
0.340238
0.0641384
0.11634
0.117896
0.10893
0.0899225
0.122559
0.201385
0.234515
0.328156
0.398991
0.475798
0.545922
0.0803918
0.148458
0.194147
0.212738
0.207692
0.220421
0.295538
0.379635
0.482705
0.570982
0.652235
0.719213
0.109132
0.210051
0.235713
0.234366
0.248171
0.314444
0.413401
0.512433
0.607033
0.688281
0.758936
0.816313
0.125778
0.248069
0.273974
0.279623
0.327044
0.415205
0.516215
0.612096
0.696918
0.768807
0.830606
0.881232
0.137382
0.27373
0.309951
0.337861
0.406459
0.501171
0.598646
0.686529
0.761747
0.825553
0.880308
0.925814
0.1429
0.286608
0.337998
0.39598
0.483726
0.581641
0.673973
0.754097
0.821221
0.877532
0.925428
0.965581
0.147386
0.301107
0.379844
0.475593
0.583672
0.684477
0.770556
0.840954
0.89762
0.943719
0.982095
1.01413
0.155583
0.332688
0.468377
0.611307
0.739849
0.841139
0.916592
0.971664
1.01178
1.04154
1.0647
1.08329
0.171362
0.40271
0.645481
0.840671
0.981539
1.07334
1.12848
1.15917
1.17426
1.17949
1.18014
1.17862
0.203343
0.549672
0.944864
1.18462
1.31099
1.37168
1.39223
1.38898
1.3708
1.34565
1.31847
1.29187
0.585088
0.951757
1.37018
1.56175
1.63038
1.64177
1.62738
1.59116
1.5453
1.49457
1.44352
1.39455
0.350338
0.355318
0.354225
0.351846
0.344734
0.331043
0.311749
0.285061
0.250763
0.208082
0.157985
0.124427
0.607353
0.654533
0.682248
0.689443
0.682284
0.667208
0.646447
0.616912
0.568285
0.465311
0.340742
0.288812
0.770347
0.803637
0.818227
0.819362
0.812078
0.801122
0.787892
0.770081
0.738412
0.66981
0.505537
0.415918
0.859691
0.889664
0.9068
0.913964
0.914855
0.913438
0.911911
0.910063
0.900356
0.860839
0.718474
0.515996
0.920316
0.948552
0.966774
0.977245
0.983452
0.989454
0.998839
1.01248
1.02136
1.00605
0.896083
0.60178
0.962053
0.989559
1.00924
1.02317
1.0348
1.0485
1.0686
1.09699
1.12866
1.14078
1.07695
0.684885
0.99835
1.0243
1.04437
1.06057
1.07624
1.09606
1.12521
1.16711
1.21846
1.25691
1.23479
0.763857
1.04061
1.06227
1.08009
1.09591
1.11288
1.13592
1.17131
1.22474
1.29554
1.36062
1.37014
0.854896
1.09854
1.11144
1.12298
1.13472
1.14938
1.17181
1.20938
1.27099
1.3605
1.4545
1.48514
0.957275
1.17656
1.17536
1.17608
1.17988
1.18865
1.20665
1.24163
1.30638
1.41203
1.5401
1.6097
1.06596
1.2679
1.24823
1.2339
1.2269
1.23004
1.2418
1.27079
1.33128
1.44319
1.60918
1.75238
1.19426
1.35036
1.3137
1.28571
1.26788
1.26547
1.27355
1.29664
1.34871
1.45256
1.64097
1.89036
1.38239
0.0356944
0.046223
0.0526153
0.0523404
0.0484608
0.0441135
0.0496328
0.106623
0.232119
0.293122
0.320494
0.340415
0.0641301
0.11632
0.117823
0.108755
0.0897803
0.122567
0.201544
0.234797
0.328488
0.399346
0.47619
0.546341
0.0803985
0.148519
0.194187
0.212652
0.207529
0.220667
0.295918
0.380113
0.483182
0.571496
0.652762
0.719748
0.10918
0.210137
0.235756
0.234406
0.248447
0.314948
0.41392
0.512979
0.607577
0.688847
0.759516
0.8169
0.125851
0.248216
0.274183
0.279928
0.327523
0.415742
0.516765
0.612654
0.697482
0.769387
0.831209
0.881847
0.137488
0.273926
0.310229
0.338266
0.406948
0.501697
0.599179
0.687076
0.762306
0.826139
0.880916
0.926444
0.142985
0.2868
0.338287
0.396381
0.484179
0.58212
0.674476
0.754618
0.821768
0.878105
0.92603
0.966206
0.147448
0.30124
0.380083
0.475905
0.584027
0.68487
0.770989
0.841423
0.898122
0.944256
0.982662
1.01472
0.155624
0.332756
0.468496
0.611456
0.74004
0.841386
0.9169
0.972026
1.01219
1.042
1.06519
1.08381
0.171373
0.402696
0.645468
0.840653
0.981553
1.07342
1.12863
1.15939
1.17453
1.17983
1.18052
1.17904
0.203339
0.549614
0.944772
1.1845
1.31089
1.37163
1.39225
1.38906
1.37094
1.34586
1.31873
1.29217
0.585142
0.951781
1.37016
1.56166
1.63028
1.64169
1.62734
1.59117
1.54536
1.49467
1.44367
1.39473
0.350508
0.35548
0.354377
0.351977
0.344846
0.331136
0.311823
0.285118
0.250806
0.208104
0.157994
0.124432
0.607768
0.65494
0.682628
0.689779
0.682587
0.667473
0.646674
0.617098
0.568427
0.465404
0.34078
0.288827
0.770873
0.804148
0.818708
0.819818
0.812487
0.801487
0.78821
0.770351
0.738635
0.669982
0.505627
0.415952
0.860277
0.890238
0.907354
0.914489
0.915342
0.91389
0.912321
0.910414
0.900652
0.861073
0.71863
0.516057
0.920938
0.949169
0.967379
0.977829
0.984006
0.989971
0.999312
1.0129
1.02172
1.00635
0.896279
0.60186
0.962694
0.990203
1.00987
1.02379
1.0354
1.04907
1.06913
1.09746
1.12908
1.14113
1.07719
0.684984
0.998991
1.02494
1.04501
1.0612
1.07685
1.09664
1.12577
1.16762
1.21892
1.2573
1.23506
0.763972
1.04122
1.06289
1.08071
1.09652
1.11348
1.1365
1.17187
1.22527
1.29602
1.36102
1.37044
0.855028
1.09909
1.112
1.12355
1.13529
1.14994
1.17236
1.20992
1.27151
1.36098
1.45493
1.48546
0.957423
1.17701
1.17583
1.17656
1.18036
1.18914
1.20714
1.24213
1.30688
1.41252
1.54054
1.61002
1.06612
1.26823
1.24859
1.23428
1.22729
1.23044
1.24221
1.27121
1.33173
1.44364
1.60961
1.75271
1.19442
1.35058
1.31394
1.28598
1.26817
1.26578
1.27387
1.29698
1.34907
1.45297
1.64139
1.89068
1.38259
0.0357159
0.0462704
0.0526751
0.05241
0.0485437
0.0441791
0.049652
0.10638
0.231915
0.292986
0.320371
0.34029
0.0641429
0.116348
0.117906
0.108942
0.0899403
0.122593
0.201424
0.23456
0.328213
0.399056
0.475873
0.546005
0.0803982
0.14847
0.194171
0.212779
0.207739
0.220459
0.295578
0.379688
0.482772
0.571059
0.652321
0.719304
0.109136
0.210071
0.235746
0.234403
0.248198
0.314466
0.413441
0.51249
0.607102
0.688359
0.759021
0.816402
0.125781
0.248088
0.273999
0.279643
0.327055
0.41523
0.516259
0.612155
0.696986
0.768881
0.830686
0.881316
0.137381
0.273741
0.309964
0.337865
0.406465
0.501193
0.598687
0.686584
0.761809
0.82562
0.880379
0.925889
0.142899
0.286611
0.337996
0.395969
0.483723
0.581655
0.674003
0.754138
0.82127
0.877585
0.925486
0.965643
0.147384
0.301109
0.379839
0.475583
0.58367
0.684486
0.770576
0.840983
0.897655
0.943758
0.982138
1.01417
0.155585
0.332698
0.468385
0.611323
0.739871
0.841165
0.91662
0.971694
1.01181
1.04157
1.06473
1.08333
0.17137
0.402742
0.645531
0.840732
0.981602
1.0734
1.12853
1.15922
1.1743
1.17952
1.18018
1.17865
0.203363
0.549747
0.944954
1.18471
1.31109
1.37177
1.3923
1.38905
1.37085
1.3457
1.31852
1.29191
0.585159
0.951891
1.37032
1.56187
1.6305
1.64189
1.62749
1.59126
1.54539
1.49464
1.44359
1.39461
0.350389
0.35537
0.354275
0.351895
0.34478
0.331086
0.311787
0.285095
0.250789
0.208105
0.158003
0.124446
0.607441
0.654625
0.682339
0.689531
0.682368
0.667288
0.646522
0.616982
0.568352
0.465361
0.340779
0.288844
0.770441
0.803731
0.81832
0.819452
0.812164
0.801205
0.78797
0.770154
0.73848
0.669872
0.505581
0.415949
0.859783
0.889757
0.906893
0.914054
0.914941
0.91352
0.91199
0.910136
0.900424
0.860902
0.718529
0.516031
0.920403
0.948639
0.966861
0.977331
0.983535
0.989533
0.998915
1.01256
1.02142
1.00612
0.896141
0.601814
0.962131
0.989638
1.00932
1.02325
1.03488
1.04858
1.06868
1.09706
1.12873
1.14085
1.07701
0.684918
0.998416
1.02436
1.04444
1.06064
1.07631
1.09613
1.12528
1.16718
1.21853
1.25698
1.23485
0.763888
1.04066
1.06233
1.08015
1.09596
1.11294
1.13598
1.17138
1.22481
1.29561
1.36068
1.3702
0.854926
1.09858
1.11148
1.12303
1.13477
1.14943
1.17187
1.20944
1.27105
1.36056
1.45456
1.48519
0.957298
1.17659
1.1754
1.17612
1.17992
1.1887
1.2067
1.24169
1.30644
1.41209
1.54015
1.60974
1.06597
1.26795
1.24828
1.23395
1.22695
1.23009
1.24185
1.27084
1.33133
1.44322
1.6092
1.7524
1.19426
1.35042
1.31376
1.28577
1.26794
1.26553
1.27361
1.29669
1.34874
1.45257
1.64096
1.89034
1.38236
1.70409
1.70504
1.72061
1.73644
1.741
1.73197
1.70837
1.66838
1.61954
1.56323
1.50477
1.44653
1.70327
1.66273
1.64521
1.64063
1.63954
1.63403
1.62119
1.6005
1.56938
1.52497
1.47662
1.42509
1.59364
1.56075
1.53127
1.50926
1.491
1.47609
1.46234
1.44623
1.42784
1.40453
1.3762
1.34171
1.44932
1.42525
1.39571
1.36465
1.33584
1.3109
1.29051
1.27433
1.26213
1.25058
1.24039
1.23294
1.39266
1.34822
1.31446
1.29257
1.28858
1.29542
1.31519
1.35842
1.44186
1.6059
1.89665
1.82188
1.37638
1.33834
1.31108
1.29593
1.29617
1.30388
1.32277
1.35916
1.41935
1.52245
1.74964
1.75969
1.31141
1.29351
1.28273
1.28142
1.28553
1.29667
1.31401
1.33981
1.38173
1.43751
1.57588
1.61789
1.23183
1.23906
1.24193
1.2464
1.25217
1.26069
1.27451
1.29335
1.3246
1.35579
1.43197
1.46571
1.70414
1.70508
1.72067
1.73656
1.7412
1.7322
1.70865
1.66867
1.61982
1.5635
1.505
1.44672
1.70334
1.66277
1.64524
1.6407
1.63965
1.63418
1.62137
1.60071
1.56961
1.52522
1.47683
1.42528
1.59371
1.5608
1.53131
1.50932
1.49108
1.47621
1.46248
1.44639
1.42801
1.40472
1.37639
1.34191
1.44938
1.4253
1.39576
1.36472
1.33593
1.31101
1.29064
1.27448
1.26229
1.25075
1.24057
1.23313
1.3928
1.34831
1.31452
1.2926
1.28859
1.29544
1.3152
1.35841
1.44185
1.60589
1.89663
1.82187
1.37655
1.33848
1.3112
1.29603
1.29627
1.30398
1.32286
1.35925
1.41944
1.52255
1.74971
1.75976
1.31159
1.29368
1.2829
1.28159
1.2857
1.29685
1.3142
1.34
1.38192
1.43769
1.57605
1.61804
1.23203
1.23928
1.24215
1.24664
1.25241
1.26094
1.27476
1.2936
1.32484
1.35603
1.43219
1.4659
1.70418
1.70514
1.72072
1.73657
1.74118
1.73218
1.70863
1.66867
1.61985
1.56355
1.50508
1.44682
1.70341
1.66287
1.64534
1.64078
1.63971
1.63423
1.6214
1.60074
1.56964
1.52525
1.47689
1.42535
1.59385
1.56094
1.53144
1.50944
1.49118
1.47629
1.46255
1.44645
1.42806
1.40476
1.37644
1.34195
1.44956
1.42546
1.3959
1.36485
1.33604
1.3111
1.29072
1.27454
1.26235
1.2508
1.24062
1.23318
1.39293
1.34847
1.3147
1.29281
1.28882
1.29567
1.31545
1.3587
1.44218
1.60626
1.89695
1.82214
1.37663
1.33858
1.31131
1.29617
1.29642
1.30415
1.32305
1.35947
1.4197
1.52284
1.75003
1.76005
1.31164
1.29375
1.28298
1.28168
1.28581
1.29697
1.31434
1.34017
1.38212
1.43794
1.57635
1.61834
1.23208
1.23933
1.24222
1.24672
1.25251
1.26106
1.27491
1.29378
1.32506
1.35627
1.43249
1.46622
1.70433
1.70526
1.72086
1.73675
1.74139
1.73239
1.70883
1.66883
1.61996
1.56362
1.50511
1.44682
1.70367
1.66308
1.64554
1.641
1.63994
1.63446
1.62163
1.60095
1.56983
1.5254
1.477
1.42543
1.59415
1.56121
1.5317
1.50969
1.49144
1.47655
1.4628
1.4467
1.4283
1.40498
1.37663
1.34211
1.44987
1.42576
1.39619
1.36512
1.33631
1.31137
1.29098
1.27479
1.26258
1.25102
1.24082
1.23334
1.3929
1.34841
1.31462
1.2927
1.28867
1.29551
1.31525
1.35843
1.44183
1.60585
1.89657
1.8218
1.37669
1.33862
1.31133
1.29614
1.29637
1.30405
1.32289
1.35924
1.41938
1.52246
1.7496
1.75964
1.31178
1.29386
1.28305
1.28171
1.28577
1.29687
1.31417
1.33993
1.3818
1.43755
1.57588
1.61788
1.23221
1.23942
1.24224
1.24668
1.25239
1.26087
1.27465
1.29345
1.32466
1.35583
1.43197
1.46571
1.28623
1.25314
1.21991
1.18882
1.16253
1.14162
1.1264
1.11674
1.11262
1.11341
1.12162
1.13925
1.15471
1.12322
1.0934
1.06644
1.0436
1.02515
1.01163
1.00332
1.00023
1.00158
1.00761
1.02231
1.05107
1.026
1.00194
0.979116
0.957679
0.937803
0.920261
0.9056
0.893617
0.883386
0.876033
0.877797
0.966681
0.949291
0.9311
0.911251
0.888951
0.864127
0.837452
0.809375
0.779463
0.746218
0.712281
0.694061
1.15856
1.16872
1.16466
1.1678
1.17793
1.19475
1.21851
1.24602
1.27642
1.30381
1.32977
1.32419
1.04259
1.05099
1.04004
1.04588
1.06463
1.09309
1.12774
1.16248
1.19029
1.20801
1.21549
1.19426
0.901803
0.92351
0.914116
0.924346
0.951153
0.988148
1.02984
1.06662
1.09172
1.10529
1.1059
1.08317
0.723498
0.791329
0.794621
0.811115
0.844001
0.886033
0.930983
0.968167
0.992376
1.00516
1.00558
0.98871
1.28629
1.25321
1.22
1.18892
1.16265
1.14175
1.12654
1.1169
1.11279
1.1136
1.12184
1.1395
1.15478
1.1233
1.09351
1.06657
1.04374
1.0253
1.01179
1.0035
1.00043
1.0018
1.00787
1.02259
1.05116
1.0261
1.00207
0.979267
0.957843
0.937974
0.920438
0.905787
0.893822
0.883613
0.876297
0.878091
0.966766
0.949397
0.93124
0.911418
0.889133
0.864314
0.837641
0.809568
0.779664
0.746433
0.712512
0.694316
1.15882
1.169
1.16495
1.16809
1.17821
1.19503
1.21879
1.24629
1.27667
1.30404
1.32999
1.32437
1.0429
1.0513
1.04035
1.04619
1.06493
1.09338
1.12803
1.16275
1.19054
1.20824
1.2157
1.19444
0.902119
0.923837
0.914436
0.924659
0.951457
0.988442
1.03013
1.06689
1.09196
1.10552
1.10611
1.08335
0.723787
0.791644
0.794933
0.811421
0.844297
0.88632
0.931258
0.968424
0.992615
1.00538
1.00578
0.988884
1.28646
1.25335
1.22012
1.18903
1.16274
1.14183
1.12661
1.11696
1.11285
1.11365
1.12189
1.13956
1.15494
1.12344
1.09363
1.06667
1.04383
1.02538
1.01186
1.00356
1.00048
1.00185
1.00795
1.02269
1.05131
1.02623
1.00217
0.979357
0.957925
0.938052
0.920513
0.905861
0.893897
0.883694
0.876395
0.878212
0.966915
0.94952
0.931341
0.911504
0.889213
0.864394
0.837723
0.809655
0.779759
0.74654
0.712637
0.694468
1.1589
1.16909
1.16507
1.16823
1.17838
1.19523
1.21901
1.24653
1.27694
1.30434
1.33031
1.3247
1.04302
1.05145
1.04053
1.04639
1.06516
1.09363
1.1283
1.16304
1.19085
1.20856
1.21602
1.19476
0.902284
0.924027
0.914654
0.924897
0.951717
0.988721
1.03042
1.06719
1.09228
1.10584
1.10642
1.08365
0.723969
0.791866
0.795172
0.811675
0.844569
0.886606
0.931556
0.968726
0.992919
1.00569
1.00608
0.989156
1.28677
1.25365
1.2204
1.18929
1.16299
1.14207
1.12683
1.11716
1.11301
1.1138
1.12197
1.13956
1.15524
1.12372
1.09388
1.0669
1.04404
1.02557
1.01202
1.00368
1.00056
1.00189
1.00787
1.02253
1.05158
1.02647
1.0024
0.979551
0.958086
0.938175
0.920595
0.905896
0.893878
0.883615
0.876222
0.877964
0.967158
0.949733
0.931523
0.911651
0.88932
0.864456
0.837736
0.809614
0.779661
0.74638
0.712408
0.694168
1.15884
1.16898
1.16487
1.16798
1.17806
1.19485
1.21858
1.24606
1.27643
1.30381
1.32975
1.32419
1.0428
1.05118
1.04019
1.046
1.06471
1.09314
1.12777
1.16249
1.19028
1.20799
1.21546
1.19425
0.901951
0.923647
0.914218
0.924427
0.951208
0.98818
1.02986
1.06662
1.0917
1.10527
1.10587
1.08315
0.723604
0.791422
0.794689
0.811167
0.844035
0.886049
0.930983
0.968153
0.992352
1.00513
1.00555
0.98869
0.893358
0.883337
0.870418
0.852563
0.828003
0.796054
0.756599
0.709083
0.650703
0.572135
0.444979
0.261915
0.825183
0.821607
0.813291
0.796951
0.769881
0.730468
0.677377
0.608882
0.520554
0.401147
0.218667
0.0666227
0.758661
0.760382
0.756149
0.741335
0.712561
0.667289
0.603259
0.518777
0.411728
0.281616
0.136142
0.047374
0.692573
0.698274
0.697536
0.684587
0.655604
0.607458
0.537674
0.446071
0.335605
0.218334
0.117197
0.0462684
0.626655
0.635279
0.637266
0.626644
0.599146
0.551516
0.481607
0.391336
0.288242
0.189405
0.113534
0.0465329
0.561223
0.571837
0.575952
0.567889
0.543324
0.499174
0.433659
0.350383
0.259135
0.17596
0.112618
0.0460517
0.496635
0.508474
0.514229
0.508693
0.488006
0.449493
0.391232
0.317732
0.23894
0.167818
0.111138
0.0439331
0.43307
0.445474
0.452379
0.449042
0.432683
0.401055
0.351481
0.288539
0.221278
0.15955
0.106745
0.0404174
0.370013
0.382322
0.389856
0.388385
0.37607
0.351471
0.311483
0.258816
0.201793
0.14781
0.0976183
0.0352576
0.304956
0.316476
0.32415
0.324091
0.315202
0.296895
0.266996
0.224424
0.176542
0.129506
0.0818667
0.0284218
0.228976
0.23874
0.245801
0.246698
0.240866
0.227652
0.207652
0.177977
0.138743
0.0992458
0.0561068
0.019988
0.10261
0.108219
0.113052
0.115259
0.114255
0.11001
0.10257
0.0914162
0.0759705
0.0556342
0.0337795
0.0131272
0.449636
0.652185
0.681199
0.706753
0.743978
0.788512
0.834362
0.871779
0.896599
0.910526
0.913957
0.905502
0.316589
0.528381
0.576998
0.611192
0.651216
0.696516
0.74192
0.779523
0.805673
0.821629
0.829116
0.828795
0.251073
0.431321
0.485719
0.524719
0.565953
0.610696
0.654786
0.692249
0.719716
0.738023
0.749496
0.755479
0.20528
0.354084
0.407182
0.447419
0.488348
0.531461
0.573581
0.610326
0.638557
0.659094
0.673795
0.684464
0.169511
0.291011
0.339855
0.378951
0.418318
0.45896
0.498585
0.533941
0.562274
0.584187
0.601334
0.615256
0.139704
0.237941
0.281827
0.318578
0.355502
0.393061
0.429757
0.463121
0.490893
0.513313
0.531826
0.547712
0.114562
0.191651
0.231283
0.265312
0.299288
0.333347
0.366755
0.397693
0.424283
0.446428
0.465316
0.482024
0.09338
0.150198
0.186609
0.21802
0.248792
0.279076
0.308917
0.33711
0.361996
0.383208
0.401644
0.41824
0.0745952
0.1131
0.146438
0.175407
0.20273
0.229
0.255031
0.280202
0.302954
0.322679
0.339976
0.355704
0.0570361
0.0802335
0.109557
0.135587
0.158787
0.180611
0.20248
0.22432
0.244557
0.262275
0.277779
0.291921
0.0407496
0.0517483
0.0739434
0.0943635
0.111543
0.127685
0.144442
0.162209
0.179223
0.194054
0.206708
0.218239
0.0181529
0.0220128
0.0317145
0.0414623
0.0489382
0.0555609
0.0624946
0.0702277
0.0779189
0.0848617
0.0910849
0.0969221
0.893443
0.883447
0.870567
0.852743
0.8282
0.796255
0.756798
0.709276
0.650886
0.572303
0.445114
0.261999
0.825268
0.821718
0.813444
0.797139
0.770089
0.730681
0.677582
0.609069
0.520712
0.401264
0.218721
0.0666486
0.758747
0.76049
0.756302
0.741526
0.712775
0.667507
0.603466
0.518957
0.411867
0.281705
0.136186
0.0473995
0.692658
0.69838
0.697686
0.684775
0.655817
0.607676
0.53788
0.446244
0.335733
0.218416
0.117248
0.0462956
0.626738
0.635382
0.637408
0.626825
0.599352
0.551729
0.481806
0.391502
0.288365
0.189487
0.113592
0.0465609
0.561305
0.571936
0.576086
0.568058
0.543517
0.499375
0.433849
0.350541
0.259254
0.176044
0.112681
0.0460813
0.496714
0.508568
0.514354
0.508848
0.488183
0.449679
0.39141
0.317882
0.239057
0.167904
0.111205
0.043962
0.433144
0.445561
0.452494
0.449181
0.432842
0.401223
0.351645
0.28868
0.22139
0.159636
0.106812
0.040445
0.370081
0.3824
0.389961
0.388509
0.37621
0.351619
0.311631
0.258945
0.2019
0.147893
0.0976819
0.0352824
0.305013
0.316543
0.324241
0.324198
0.315322
0.29702
0.267124
0.224539
0.176638
0.129582
0.0819217
0.0284428
0.229017
0.238793
0.245873
0.246783
0.240961
0.227751
0.20775
0.178069
0.138823
0.099307
0.0561463
0.0200036
0.102627
0.108243
0.113085
0.115299
0.114301
0.110059
0.10262
0.0914632
0.076014
0.0556711
0.0338047
0.0131381
0.449834
0.652471
0.681494
0.707046
0.744265
0.78879
0.834632
0.872031
0.896835
0.910747
0.914158
0.905673
0.31674
0.528636
0.577272
0.611471
0.651492
0.696786
0.742183
0.779772
0.805906
0.821847
0.829314
0.828963
0.251199
0.431548
0.485974
0.524983
0.566218
0.610957
0.655042
0.692493
0.719946
0.738236
0.749688
0.755645
0.205388
0.354287
0.407418
0.447668
0.488601
0.531713
0.57383
0.610565
0.638784
0.659304
0.673983
0.684627
0.169604
0.291193
0.340072
0.379184
0.418558
0.459201
0.498825
0.534175
0.562497
0.584393
0.601519
0.615416
0.139785
0.238103
0.282024
0.318795
0.355728
0.39329
0.429987
0.463347
0.491109
0.513515
0.532008
0.54787
0.114631
0.191792
0.23146
0.265511
0.299498
0.333562
0.366971
0.397908
0.42449
0.446623
0.465494
0.48218
0.0934383
0.150317
0.186765
0.218198
0.248983
0.279272
0.309117
0.33731
0.362191
0.383393
0.401814
0.418392
0.0746436
0.113196
0.146572
0.175563
0.202898
0.229174
0.255209
0.280383
0.303132
0.322849
0.340135
0.355847
0.0570743
0.0803069
0.109666
0.135716
0.158927
0.180758
0.20263
0.224475
0.244711
0.262425
0.27792
0.29205
0.0407775
0.0517967
0.0740243
0.0944596
0.111647
0.127793
0.144555
0.162328
0.179343
0.194172
0.20682
0.218344
0.0181636
0.022029
0.0317494
0.0415047
0.048984
0.0556079
0.0625433
0.0702791
0.0779711
0.0849131
0.0911348
0.0969689
0.893587
0.883565
0.870662
0.852824
0.828277
0.796335
0.756884
0.709371
0.650993
0.572422
0.445238
0.26208
0.825409
0.821831
0.813534
0.797215
0.770161
0.730757
0.677667
0.609164
0.520816
0.401369
0.218797
0.066662
0.758885
0.760602
0.756388
0.741597
0.712841
0.667577
0.603544
0.519043
0.411955
0.281779
0.13622
0.0474018
0.692794
0.69849
0.697769
0.684842
0.655877
0.607738
0.537947
0.446315
0.3358
0.218462
0.117264
0.0462962
0.626872
0.63549
0.637491
0.626889
0.599407
0.551782
0.481862
0.391558
0.288412
0.189517
0.113601
0.0465614
0.561438
0.572044
0.57617
0.568122
0.54357
0.499422
0.433895
0.350584
0.259288
0.176064
0.112685
0.0460815
0.496845
0.508675
0.514437
0.508911
0.488235
0.449722
0.391449
0.317916
0.23908
0.167919
0.111206
0.0439622
0.433273
0.445666
0.452577
0.449244
0.432894
0.401263
0.351679
0.288707
0.221407
0.159648
0.106812
0.0404454
0.370206
0.382501
0.390041
0.388567
0.376262
0.351657
0.31166
0.258969
0.20191
0.147906
0.0976793
0.0352837
0.305127
0.316636
0.324313
0.324252
0.315368
0.297055
0.267149
0.224558
0.176648
0.129591
0.0819219
0.028442
0.22911
0.238869
0.245931
0.246826
0.240998
0.227779
0.207772
0.178085
0.138831
0.0993142
0.0561465
0.0200034
0.102667
0.108277
0.113109
0.115318
0.114315
0.11007
0.102628
0.0914688
0.0760168
0.0556717
0.0338034
0.0131374
0.449982
0.652699
0.681735
0.707298
0.744531
0.789067
0.834917
0.872316
0.897116
0.911024
0.914424
0.905913
0.316872
0.528847
0.577497
0.611706
0.651739
0.697042
0.742444
0.78003
0.806158
0.822092
0.829546
0.82917
0.251316
0.431733
0.486173
0.525193
0.566437
0.611183
0.655273
0.69272
0.720166
0.738445
0.749884
0.755818
0.20549
0.354443
0.407587
0.447846
0.488787
0.531905
0.574026
0.610757
0.638969
0.659479
0.674141
0.684767
0.169691
0.291322
0.340212
0.379331
0.418711
0.459359
0.498984
0.534332
0.562646
0.584533
0.601645
0.615523
0.139857
0.238207
0.282135
0.31891
0.355849
0.393414
0.430111
0.463468
0.491225
0.513622
0.532103
0.547948
0.114691
0.191873
0.231545
0.265599
0.299589
0.333655
0.367063
0.397998
0.424575
0.4467
0.46556
0.482232
0.0934872
0.150377
0.186827
0.218261
0.249049
0.279339
0.309182
0.337372
0.362249
0.383444
0.401856
0.418422
0.0746824
0.113238
0.146613
0.175606
0.202943
0.229221
0.255253
0.280422
0.303167
0.322879
0.340158
0.355861
0.0571035
0.080334
0.10969
0.135743
0.158957
0.18079
0.202659
0.224498
0.24473
0.262439
0.277929
0.292051
0.0407981
0.0518142
0.0740352
0.0944753
0.111666
0.127815
0.144573
0.162339
0.17935
0.194176
0.206821
0.218337
0.0181736
0.0220384
0.0317541
0.0415124
0.0489946
0.0556206
0.0625547
0.0702868
0.0779771
0.0849183
0.0911378
0.0969691
0.893797
0.883742
0.870803
0.852925
0.828334
0.796344
0.756842
0.709278
0.650853
0.572245
0.445048
0.261947
0.825586
0.821974
0.813637
0.797276
0.770177
0.730726
0.67759
0.609048
0.520676
0.401234
0.218726
0.0666456
0.75903
0.760715
0.756458
0.741624
0.712825
0.667519
0.60345
0.518926
0.41184
0.281699
0.136202
0.0473975
0.692909
0.698575
0.697812
0.684842
0.655838
0.607664
0.537848
0.44621
0.335713
0.218415
0.117253
0.0462918
0.626958
0.635548
0.637512
0.626869
0.599353
0.551701
0.481765
0.391466
0.288345
0.189482
0.113587
0.0465562
0.561496
0.57208
0.576172
0.568088
0.543506
0.499339
0.433802
0.350503
0.259231
0.176031
0.112669
0.0460734
0.496881
0.508692
0.514425
0.508868
0.488167
0.449639
0.391361
0.317841
0.239029
0.167884
0.111187
0.0439532
0.43329
0.445668
0.452554
0.449196
0.432825
0.401184
0.351596
0.288637
0.221358
0.159611
0.10679
0.0404351
0.370207
0.382492
0.39001
0.38852
0.376194
0.351584
0.311583
0.258903
0.201865
0.147864
0.0976582
0.0352725
0.305119
0.316621
0.324282
0.324207
0.315307
0.296991
0.267082
0.224499
0.176603
0.129553
0.0818992
0.0284336
0.229098
0.238852
0.245905
0.246788
0.240948
0.227727
0.20772
0.178036
0.13879
0.0992809
0.0561286
0.019996
0.102667
0.108274
0.113103
0.115302
0.114295
0.110047
0.102604
0.0914463
0.0759957
0.055653
0.0337916
0.0131319
0.4497
0.652242
0.681242
0.706785
0.743998
0.788519
0.834358
0.871763
0.896576
0.910498
0.913928
0.905481
0.316625
0.528415
0.577023
0.61121
0.651227
0.696518
0.741913
0.779507
0.805651
0.821602
0.829087
0.828775
0.251096
0.431339
0.48573
0.524727
0.565957
0.610694
0.654777
0.692233
0.719694
0.737997
0.749467
0.755458
0.205295
0.354091
0.407184
0.447419
0.488346
0.531456
0.573571
0.61031
0.638537
0.659068
0.673764
0.684438
0.169521
0.291012
0.339851
0.378944
0.418312
0.458951
0.498573
0.533924
0.562253
0.58416
0.6013
0.615222
0.139711
0.237939
0.281818
0.318567
0.355492
0.39305
0.429743
0.463103
0.49087
0.513285
0.531789
0.547671
0.114567
0.191647
0.231272
0.265299
0.299275
0.333334
0.366739
0.397674
0.424259
0.446398
0.465276
0.481978
0.0933841
0.150194
0.186598
0.218004
0.248777
0.27906
0.308901
0.33709
0.361972
0.383176
0.401602
0.418191
0.0745995
0.113096
0.146428
0.175391
0.202713
0.228985
0.255014
0.280182
0.30293
0.322647
0.339934
0.355653
0.0570404
0.0802322
0.109548
0.135572
0.158771
0.180597
0.202465
0.224302
0.244535
0.262246
0.277739
0.291873
0.0407539
0.0517491
0.0739365
0.0943526
0.111531
0.127675
0.144432
0.162197
0.179206
0.194031
0.206675
0.218199
0.0181549
0.0220143
0.0317116
0.0414576
0.0489333
0.0555572
0.0624916
0.0702235
0.0779124
0.0848519
0.0910693
0.0969011
)
;

boundaryField
{
    rotor
    {
        type            kqRWallFunction;
        value           nonuniform List<scalar> 
192
(
0.0356684
0.046207
0.0526374
0.0523732
0.0485067
0.044168
0.049689
0.10673
0.232207
0.293165
0.32052
0.340432
0.350515
0.355484
0.354379
0.351977
0.344844
0.331137
0.311824
0.285122
0.250808
0.208114
0.158006
0.124447
0.0357145
0.0462685
0.0526718
0.0524063
0.04854
0.0441741
0.0496435
0.106344
0.231864
0.292936
0.32032
0.340238
0.350338
0.355318
0.354225
0.351846
0.344734
0.331043
0.311749
0.285061
0.250763
0.208082
0.157985
0.124427
0.0356944
0.046223
0.0526153
0.0523404
0.0484608
0.0441135
0.0496328
0.106623
0.232119
0.293122
0.320494
0.340415
0.350508
0.35548
0.354377
0.351977
0.344846
0.331136
0.311823
0.285118
0.250806
0.208104
0.157994
0.124432
0.0357159
0.0462704
0.0526751
0.05241
0.0485437
0.0441791
0.049652
0.10638
0.231915
0.292986
0.320371
0.34029
0.350389
0.35537
0.354275
0.351895
0.34478
0.331086
0.311787
0.285095
0.250789
0.208105
0.158003
0.124446
0.0356684
0.0641724
0.0804725
0.109251
0.12591
0.137529
0.143008
0.147433
0.155594
0.171327
0.203284
0.585075
0.124446
0.288844
0.415949
0.516031
0.601814
0.684918
0.763888
0.854926
0.957298
1.06597
1.19426
1.38236
0.0357145
0.0641384
0.0803918
0.109132
0.125778
0.137382
0.1429
0.147386
0.155583
0.171362
0.203343
0.585088
0.124447
0.28885
0.415966
0.516059
0.601851
0.684963
0.76394
0.854982
0.957363
1.06604
1.19432
1.38244
0.0356944
0.0641301
0.0803985
0.10918
0.125851
0.137488
0.142985
0.147448
0.155624
0.171373
0.203339
0.585142
0.124427
0.288812
0.415918
0.515996
0.60178
0.684885
0.763857
0.854896
0.957275
1.06596
1.19426
1.38239
0.0357159
0.0641429
0.0803982
0.109136
0.125781
0.137381
0.142899
0.147384
0.155585
0.17137
0.203363
0.585159
0.124432
0.288827
0.415952
0.516057
0.60186
0.684984
0.763972
0.855028
0.957423
1.06612
1.19442
1.38259
)
;
    }
    stator
    {
        type            kqRWallFunction;
        value           nonuniform List<scalar> 
192
(
0.10261
0.108219
0.113052
0.115259
0.114255
0.11001
0.10257
0.0914162
0.0759705
0.0556342
0.0337795
0.0131272
0.0181529
0.0220128
0.0317145
0.0414623
0.0489382
0.0555609
0.0624946
0.0702277
0.0779189
0.0848617
0.0910849
0.0969221
0.102627
0.108243
0.113085
0.115299
0.114301
0.110059
0.10262
0.0914632
0.076014
0.0556711
0.0338047
0.0131381
0.0181636
0.022029
0.0317494
0.0415047
0.048984
0.0556079
0.0625433
0.0702791
0.0779711
0.0849131
0.0911348
0.0969689
0.102667
0.108277
0.113109
0.115318
0.114315
0.11007
0.102628
0.0914688
0.0760168
0.0556717
0.0338034
0.0131374
0.0181736
0.0220384
0.0317541
0.0415124
0.0489946
0.0556206
0.0625547
0.0702868
0.0779771
0.0849183
0.0911378
0.0969691
0.102667
0.108274
0.113103