/*--------------------------------*- C++ -*----------------------------------*\
| =========                 |                                                 |
| \\      /  F ield         | OpenFOAM: The Open Source CFD Toolbox           |
|  \\    /   O peration     | Version:  v1912                                 |
|   \\  /    A nd           | Website:  www.openfoam.com                      |
|    \\/     M anipulation  |                                                 |
\*---------------------------------------------------------------------------*/
FoamFile
{
    version     2.0;
    format      ascii;
    class       volScalarField;
    location    "350";
    object      nut;
}
// * * * * * * * * * * * * * * * * * * * * * * * * * * * * * * * * * * * * * //

dimensions      [0 2 -1 0 0 0 0];


internalField   nonuniform List<scalar> 
3072
(
2.94455e-05
6.14197e-05
6.54923e-05
6.53253e-05
6.2878e-05
5.99505e-05
6.3457e-05
9.23684e-05
0.000137082
0.000154276
0.000161365
0.000166315
4.40373e-05
0.000167128
0.000205223
0.000183126
0.000103244
8.4654e-05
0.00014659
0.000179679
0.000267928
0.000361069
0.000499475
0.000646135
5.44551e-05
0.000226959
0.000273992
0.000236025
0.000201607
0.000215212
0.00032536
0.000466661
0.000665552
0.000897509
0.00112543
0.00133404
6.95227e-05
0.000315774
0.000316442
0.000288945
0.00030665
0.000436215
0.000635076
0.000866828
0.00113644
0.0014082
0.00165289
0.00186615
8.11594e-05
0.000384056
0.00041769
0.000420601
0.0005259
0.000732075
0.000973887
0.00124552
0.00153153
0.00180371
0.00204571
0.00225517
9.16168e-05
0.000463281
0.000545869
0.000610385
0.000780026
0.00101571
0.00127933
0.00155381
0.00182608
0.00208441
0.00231656
0.00251822
0.000100382
0.000534745
0.000685434
0.000820172
0.00103908
0.0012908
0.00155181
0.00181502
0.00206776
0.00230177
0.00251039
0.0026924
0.000109034
0.000625546
0.000851552
0.00108057
0.00133089
0.00158099
0.00182278
0.00205405
0.00226855
0.00246331
0.002637
0.00278905
0.000119282
0.000728716
0.00108305
0.00137423
0.00162705
0.00185146
0.00205282
0.00223519
0.00239863
0.00254617
0.0026802
0.00280097
0.000132839
0.000831817
0.00127453
0.0015802
0.00181532
0.00200447
0.00216536
0.00230671
0.00243429
0.00254835
0.00265388
0.00275148
0.000153042
0.000782183
0.00134546
0.00167393
0.0019001
0.00207754
0.00222177
0.00234382
0.00244494
0.00253403
0.00261515
0.0026905
0.000273709
0.000753929
0.00141426
0.00178565
0.00199166
0.00215518
0.00229237
0.002392
0.00247227
0.002539
0.00259734
0.00265032
0.0001688
0.000170037
0.000169781
0.000169206
0.000167502
0.000164165
0.000159334
0.000152382
0.000142957
0.000130234
0.000113475
5.49626e-05
0.000792368
0.000915823
0.000995091
0.00101683
0.000989446
0.000924973
0.000825512
0.000691268
0.000531527
0.000322693
0.000161082
9.3621e-05
0.00150812
0.0016292
0.00168793
0.00169315
0.00164257
0.00154015
0.00138687
0.00118196
0.000924043
0.000617891
0.000272327
0.000124209
0.00204014
0.00216656
0.00223877
0.00225984
0.00222581
0.00213211
0.00196925
0.00173004
0.00140851
0.000998127
0.000487482
0.000151518
0.00242772
0.00255898
0.00264509
0.00268459
0.00267301
0.0026032
0.00246193
0.00222837
0.0018662
0.00136445
0.000713561
0.000177874
0.0026868
0.00282021
0.00291678
0.00297463
0.00299062
0.0029573
0.00285698
0.00265921
0.00231609
0.00176495
0.00099748
0.000204951
0.00284694
0.00297314
0.00307063
0.00313993
0.00318152
0.00319036
0.00314826
0.00301347
0.00271532
0.00215812
0.00129147
0.000232496
0.00292015
0.00303071
0.00312117
0.00319425
0.00325302
0.00329775
0.00331622
0.0032666
0.00305559
0.00252908
0.00158112
0.000262944
0.00290885
0.00300497
0.00309034
0.00316449
0.00323054
0.00329958
0.00336816
0.00340697
0.00331647
0.00287477
0.00183905
0.000296221
0.00284158
0.00292636
0.00300774
0.00308594
0.00315811
0.00323006
0.00332751
0.00343907
0.00348388
0.00319257
0.00213818
0.000331555
0.00276191
0.00283183
0.00290265
0.00297981
0.00307076
0.00314464
0.00324104
0.00338557
0.00353427
0.00344834
0.00249603
0.000371025
0.00270163
0.00275555
0.00281497
0.00288252
0.00298007
0.00307003
0.00315679
0.0033048
0.00350837
0.00360713
0.00290779
0.000420797
2.94626e-05
6.14656e-05
6.55169e-05
6.53499e-05
6.2906e-05
5.99699e-05
6.34337e-05
9.22223e-05
0.000136978
0.000154219
0.000161317
0.00016627
4.40272e-05
0.000167103
0.000205316
0.000183394
0.000103451
8.46126e-05
0.000146378
0.000179301
0.000267517
0.000360592
0.000498911
0.000645507
5.44319e-05
0.000226771
0.000273998
0.000236023
0.000201594
0.00021478
0.000324674
0.000465759
0.000664651
0.000896483
0.00112439
0.00133298
6.94876e-05
0.000315579
0.000316251
0.000288699
0.000305917
0.000435057
0.000633929
0.000865623
0.00113519
0.00140696
0.00165169
0.00186495
8.11206e-05
0.000383753
0.000417044
0.000419693
0.000524586
0.000730856
0.000972575
0.00124409
0.00153011
0.00180235
0.00204439
0.00225388
9.15717e-05
0.000462872
0.000545036
0.000609191
0.000778799
0.0010144
0.00127795
0.0015524
0.00182466
0.00208298
0.00231517
0.00251685
0.000100348
0.000534379
0.000684649
0.000819154
0.00103803
0.00128968
0.00155059
0.00181373
0.00206642
0.00230046
0.00250909
0.0026911
0.00010902
0.000625406
0.000851184
0.0010801
0.00133027
0.00158022
0.00182188
0.00205303
0.00226745
0.00246217
0.00263583
0.00278784
0.000119281
0.000728909
0.00108322
0.00137421
0.00162681
0.00185106
0.00205227
0.00223451
0.00239783
0.00254526
0.00267922
0.00279993
0.000132855
0.000832127
0.00127472
0.0015803
0.00181525
0.0020043
0.00216507
0.00230634
0.00243386
0.00254773
0.00265323
0.00275073
0.000153064
0.000782406
0.00134561
0.00167409
0.00190031
0.00207769
0.00222183
0.00234385
0.00244487
0.00253383
0.00261485
0.0026901
0.000273692
0.000753968
0.00141442
0.00178586
0.00199198
0.00215547
0.00229267
0.00239227
0.00247247
0.00253912
0.00259737
0.00265025
0.000168759
0.000169998
0.000169746
0.000169176
0.000167476
0.000164143
0.000159316
0.000152367
0.000142945
0.000130225
0.000113468
5.49585e-05
0.000791758
0.00091522
0.000994532
0.00101637
0.000989036
0.000924627
0.000825238
0.000691075
0.000531399
0.00032263
0.000161062
9.36152e-05
0.00150711
0.00162826
0.00168709
0.00169235
0.00164187
0.00153956
0.00138641
0.00118162
0.000923809
0.000617758
0.000272287
0.000124203
0.00203896
0.0021654
0.00223769
0.00225885
0.00222492
0.00213132
0.00196858
0.00172955
0.00140816
0.000997922
0.000487403
0.000151509
0.00242642
0.00255771
0.00264388
0.00268346
0.00267198
0.00260229
0.00246117
0.00222778
0.00186575
0.00136418
0.000713455
0.000177864
0.00268545
0.00281889
0.00291551
0.00297343
0.00298952
0.00295631
0.00285612
0.00265851
0.00231558
0.00176461
0.000997345
0.00020494
0.00284564
0.00297185
0.00306937
0.00313872
0.00318038
0.00318932
0.00314735
0.00301271
0.00271474
0.00215774
0.00129131
0.000232485
0.00291894
0.00302948
0.00311995
0.00319308
0.00325191
0.00329672
0.00331529
0.00326582
0.00305498
0.00252868
0.00158095
0.000262932
0.00290778
0.00300387
0.00308923
0.00316341
0.00322951
0.0032986
0.00336727
0.0034062
0.00331587
0.00287437
0.00183889
0.000296209
0.00284076
0.00292547
0.00300683
0.00308504
0.00315723
0.0032292
0.00332671
0.00343836
0.0034833
0.0031922
0.00213803
0.000331544
0.00276143
0.00283126
0.00290203
0.00297915
0.00307013
0.00314402
0.00324043
0.00338498
0.00353382
0.00344808
0.00249592
0.000371016
0.00270147
0.00275531
0.00281467
0.00288216
0.00297969
0.0030697
0.00315645
0.00330448
0.00350807
0.00360693
0.00290775
0.000420791
2.94548e-05
6.14387e-05
6.54864e-05
6.53133e-05
6.28582e-05
5.99254e-05
6.34276e-05
9.23312e-05
0.000137055
0.000154265
0.000161359
0.000166311
4.40243e-05
0.0001671
0.00020514
0.00018297
0.000103133
8.45532e-05
0.000146543
0.000179586
0.000267861
0.000360999
0.000499409
0.000646081
5.44334e-05
0.000226811
0.000273793
0.000235769
0.000201411
0.000215196
0.000325271
0.000466529
0.000665462
0.000897421
0.00112538
0.00133402
6.9502e-05
0.000315622
0.000316273
0.000288782
0.000306566
0.000436144
0.000634961
0.000866723
0.00113636
0.00140817
0.00165292
0.00186622
8.11426e-05
0.000383963
0.000417568
0.000420503
0.000525835
0.000731991
0.000973805
0.00124545
0.0015315
0.00180374
0.0020458
0.00225533
9.16055e-05
0.000463271
0.000545844
0.000610383
0.000780025
0.00101571
0.00127935
0.00155385
0.00182616
0.00208452
0.00231673
0.00251845
0.000100376
0.00053481
0.000685548
0.000820384
0.0010393
0.00129102
0.00155204
0.00181525
0.002068
0.00230204
0.00251069
0.00269274
0.000109041
0.000625726
0.000851939
0.00108108
0.00133137
0.00158145
0.00182322
0.00205446
0.00226894
0.00246369
0.00263739
0.00278945
0.000119295
0.000729041
0.00108364
0.00137479
0.00162757
0.00185197
0.0020533
0.00223564
0.00239905
0.00254658
0.00268061
0.0028014
0.000132857
0.000832116
0.0012749
0.00158059
0.0018157
0.00200487
0.00216577
0.00230714
0.00243474
0.00254879
0.00265435
0.00275196
0.000153062
0.000782342
0.00134567
0.00167421
0.00190048
0.00207796
0.00222224
0.00234432
0.00244546
0.00253455
0.00261568
0.00269103
0.000273707
0.000754009
0.00141444
0.00178592
0.00199204
0.00215561
0.00229289
0.00239256
0.00247285
0.00253959
0.00259793
0.00265091
0.000168798
0.000170035
0.00016978
0.000169206
0.000167502
0.000164165
0.000159333
0.000152381
0.000142956
0.000130231
0.000113471
5.49592e-05
0.000792345
0.000915835
0.000995152
0.00101694
0.000989564
0.000925095
0.000825628
0.000691356
0.000531577
0.000322715
0.000161084
9.36171e-05
0.00150817
0.00162931
0.00168809
0.00169333
0.00164276
0.00154034
0.00138704
0.0011821
0.000924144
0.000617951
0.000272343
0.000124207
0.00204027
0.00216673
0.00223899
0.0022601
0.00222608
0.00213237
0.00196948
0.00173025
0.00140867
0.00099823
0.000487519
0.000151518
0.00242792
0.00255923
0.00264539
0.00268492
0.00267336
0.00260355
0.00246226
0.00222865
0.00186642
0.00136459
0.000713613
0.000177875
0.00268708
0.00282054
0.00291716
0.00297505
0.00299107
0.00295776
0.00285742
0.00265959
0.00231638
0.00176514
0.000997562
0.000204954
0.00284732
0.00297356
0.00307109
0.00314044
0.00318205
0.00319091
0.0031488
0.00301396
0.0027157
0.00215836
0.00129157
0.000232501
0.00292059
0.00303117
0.00312168
0.00319481
0.00325362
0.00329838
0.00331686
0.0032672
0.00305608
0.0025294
0.00158124
0.000262951
0.00290931
0.00300546
0.00309087
0.00316508
0.00323118
0.00330026
0.00336888
0.00340768
0.00331708
0.00287518
0.0018392
0.00029623
0.00284207
0.00292688
0.00300829
0.00308655
0.00315877
0.00323076
0.00332827
0.00343987
0.00348462
0.00319311
0.00213837
0.000331567
0.00276245
0.00283238
0.00290323
0.00298043
0.00307144
0.00314537
0.00324183
0.00338643
0.00353517
0.00344906
0.00249627
0.00037104
0.00270222
0.00275614
0.00281558
0.00288316
0.00298077
0.00307078
0.00315761
0.00330571
0.00350939
0.00360804
0.00290816
0.00042082
2.94632e-05
6.14666e-05
6.55187e-05
6.53519e-05
6.2908e-05
5.99727e-05
6.34388e-05
9.22359e-05
0.000136994
0.000154231
0.000161329
0.000166282
4.4029e-05
0.000167106
0.000205326
0.000183402
0.000103461
8.46291e-05
0.000146396
0.000179321
0.000267548
0.000360631
0.000498965
0.000645572
5.44342e-05
0.000226777
0.000274027
0.000236054
0.000201621
0.000214789
0.000324688
0.000465785
0.000664696
0.000896547
0.00112448
0.00133309
6.94892e-05
0.000315591
0.000316267
0.000288709
0.000305897
0.000435014
0.000633921
0.000865637
0.00113524
0.00140703
0.00165178
0.00186506
8.11217e-05
0.000383749
0.000417014
0.000419643
0.000524505
0.000730825
0.000972587
0.00124414
0.00153019
0.00180243
0.00204448
0.00225398
9.15714e-05
0.00046284
0.000544953
0.000609073
0.000778711
0.00101436
0.00127797
0.00155245
0.00182474
0.00208306
0.00231525
0.00251695
0.000100347
0.000534319
0.000684515
0.000818974
0.00103789
0.0012896
0.00155057
0.00181376
0.00206649
0.00230051
0.00250914
0.00269117
0.000109019
0.000625342
0.000851033
0.00107992
0.00133012
0.00158012
0.00182183
0.00205304
0.00226749
0.00246221
0.00263588
0.00278791
0.000119281
0.000728871
0.00108313
0.00137415
0.00162678
0.00185105
0.00205229
0.00223455
0.00239789
0.00254533
0.0026793
0.00280003
0.000132857
0.000832158
0.0012748
0.00158041
0.00181538
0.00200443
0.00216521
0.00230648
0.002434
0.00254786
0.00265337
0.00275088
0.000153072
0.000782521
0.00134579
0.00167431
0.00190055
0.00207795
0.00222208
0.0023441
0.00244512
0.00253406
0.00261508
0.00269033
0.000273714
0.000754138
0.00141466
0.00178616
0.0019923
0.00215583
0.00229303
0.00239263
0.00247282
0.00253946
0.00259769
0.00265057
0.000168771
0.00017001
0.000169758
0.000169188
0.000167487
0.000164154
0.000159325
0.000152376
0.000142952
0.000130231
0.000113474
5.49624e-05
0.000791834
0.000915305
0.000994623
0.00101646
0.000989119
0.000924705
0.000825306
0.000691132
0.00053145
0.000322659
0.000161073
9.362e-05
0.00150723
0.00162839
0.00168722
0.00169249
0.00164201
0.0015397
0.00138653
0.00118172
0.000923892
0.000617816
0.000272307
0.000124207
0.00203909
0.00216556
0.00223785
0.00225902
0.0022251
0.00213149
0.00196874
0.00172969
0.00140827
0.000997993
0.00048744
0.000151514
0.00242655
0.00255786
0.00264404
0.00268364
0.00267217
0.00260248
0.00246135
0.00222794
0.00186588
0.00136428
0.000713505
0.000177869
0.00268557
0.00281903
0.00291567
0.00297361
0.0029897
0.0029565
0.00285631
0.00265869
0.00231573
0.00176473
0.000997404
0.000204945
0.00284573
0.00297197
0.00306952
0.0031389
0.00318057
0.00318953
0.00314755
0.00301291
0.00271491
0.00215787
0.00129138
0.000232489
0.00291904
0.00302961
0.0031201
0.00319325
0.0032521
0.00329693
0.00331551
0.00326602
0.00305517
0.00252882
0.00158101
0.000262937
0.0029079
0.00300401
0.0030894
0.00316359
0.00322971
0.00329883
0.0033675
0.00340642
0.00331605
0.0028745
0.00183896
0.000296212
0.00284092
0.00292565
0.00300702
0.00308525
0.00315744
0.00322944
0.00332695
0.00343858
0.00348348
0.00319232
0.00213809
0.000331546
0.00276165
0.0028315
0.00290227
0.0029794
0.00307037
0.00314427
0.00324067
0.00338519
0.00353396
0.00344814
0.00249594
0.000371015
0.00270178
0.00275562
0.00281498
0.00288247
0.00297997
0.00306997
0.00315668
0.00330464
0.00350815
0.00360694
0.00290771
0.000420788
0.00168459
0.00176338
0.00189158
0.0020437
0.00217499
0.00229505
0.00239619
0.00246697
0.00252327
0.00256722
0.0026039
0.00263562
0.00272649
0.00255082
0.00248033
0.00247262
0.00248799
0.00251256
0.00253545
0.00255826
0.00258377
0.00260382
0.00262161
0.00263631
0.00339999
0.00319013
0.00302201
0.0029059
0.00281298
0.00275256
0.00271449
0.0026881
0.00267675
0.00266388
0.00265406
0.0026498
0.00362269
0.00346354
0.00329906
0.00314556
0.0030078
0.00289416
0.0028078
0.00274756
0.00271425
0.00269394
0.00268971
0.00270669
0.00266836
0.002709
0.00276042
0.00282369
0.00292175
0.00302122
0.00310607
0.00325067
0.00345802
0.00371006
0.00378212
0.00177383
0.00265799
0.00269509
0.00274659
0.00281412
0.00291161
0.00300982
0.00310277
0.00324444
0.00342895
0.00366
0.00409597
0.00304766
0.00267339
0.00272345
0.0027855
0.00286672
0.00295354
0.00305743
0.00316752
0.00329187
0.00344613
0.00361434
0.00399304
0.00365401
0.00274532
0.00282515
0.00289759
0.0029838
0.00307907
0.00318362
0.00329983
0.00341316
0.00353853
0.00364498
0.00387594
0.00379562
0.0016846
0.00176345
0.00189169
0.00204388
0.00217529
0.00229534
0.00239654
0.00246733
0.00252361
0.00256752
0.00260414
0.00263579
0.00272657
0.00255091
0.00248046
0.00247284
0.00248826
0.00251288
0.0025358
0.00255864
0.00258411
0.00260421
0.00262195
0.0026366
0.00340008
0.00319018
0.00302211
0.00290606
0.00281321
0.00275288
0.00271484
0.00268844
0.00267711
0.00266428
0.00265446
0.00265018
0.00362287
0.00346363
0.00329919
0.00314576
0.00300805
0.00289445
0.00280813
0.00274796
0.00271465
0.00269434
0.00269014
0.00270715
0.00266845
0.00270902
0.00276039
0.00282362
0.00292166
0.00302119
0.00310602
0.00325058
0.00345795
0.00371005
0.00378215
0.00177389
0.00265824
0.0026953
0.00274677
0.00281429
0.0029118
0.00301003
0.00310297
0.00324464
0.00342917
0.00366023
0.00409618
0.00304789
0.00267376
0.00272382
0.00278587
0.00286712
0.00295395
0.00305788
0.00316798
0.00329235
0.00344661
0.00361482
0.00399347
0.00365438
0.00274579
0.00282567
0.00289814
0.0029844
0.0030797
0.00318428
0.00330051
0.00341385
0.00353919
0.00364563
0.00387653
0.0037961
0.00168475
0.00176359
0.00189184
0.00204402
0.00217542
0.0022955
0.00239672
0.00246755
0.00252388
0.00256784
0.00260453
0.00263624
0.00272683
0.00255116
0.00248073
0.00247307
0.00248849
0.0025131
0.00253603
0.00255887
0.00258437
0.00260448
0.00262225
0.00263694
0.00340048
0.00319054
0.00302245
0.00290639
0.00281351
0.00275315
0.0027151
0.00268871
0.00267737
0.00266452
0.00265471
0.00265045
0.00362335
0.00346408
0.00329958
0.00314609
0.00300837
0.00289477
0.00280842
0.0027482
0.00271489
0.00269458
0.00269037
0.0027074
0.00266897
0.00270962
0.00276106
0.00282437
0.00292248
0.00302201
0.00310693
0.00325164
0.00345914
0.0037112
0.00378279
0.00177405
0.00265862
0.00269574
0.00274726
0.00281485
0.00291239
0.00301068
0.00310371
0.00324549
0.00343016
0.00366127
0.00409713
0.00304833
0.00267405
0.00272415
0.00278625
0.00286754
0.00295445
0.00305844
0.0031686
0.00329307
0.00344745
0.00361575
0.00399451
0.00365514
0.00274605
0.00282597
0.00289851
0.00298481
0.00308018
0.00318483
0.00330113
0.00341454
0.00353998
0.00364649
0.00387751
0.00379697
0.00168477
0.00176368
0.001892
0.00204424
0.0021757
0.00229579
0.002397
0.00246778
0.00252406
0.00256795
0.00260456
0.0026362
0.00272709
0.00255137
0.00248094
0.00247332
0.00248877
0.0025134
0.00253634
0.00255917
0.00258468
0.00260471
0.00262245
0.00263708
0.00340106
0.003191
0.00302283
0.00290675
0.00281385
0.00275348
0.00271544
0.00268906
0.00267772
0.00266483
0.00265499
0.00265067
0.00362408
0.00346469
0.0033001
0.00314651
0.00300876
0.00289513
0.00280876
0.00274851
0.00271519
0.00269486
0.00269059
0.00270753
0.00266885
0.00270942
0.00276077
0.00282397
0.00292196
0.00302145
0.0031062
0.00325066
0.00345792
0.00370994
0.00378201
0.00177378
0.00265871
0.00269575
0.00274718
0.00281462
0.00291208
0.00301021
0.00310305
0.00324458
0.00342897
0.00365997
0.00409587
0.00304766
0.00267423
0.00272424
0.0027862
0.00286737
0.00295406
0.00305784
0.00316786
0.00329207
0.00344622
0.00361436
0.00399295
0.00365399
0.00274613
0.00282588
0.00289819
0.00298433
0.00307949
0.00318394
0.00330007
0.00341335
0.0035386
0.003645
0.0038758
0.00379547
0.0034951
0.00333139
0.00317257
0.00302747
0.00290173
0.00280168
0.00272928
0.00268375
0.00266428
0.00266702
0.00270362
0.00278525
0.0034055
0.00324522
0.00309225
0.00295159
0.00282796
0.00272643
0.00264856
0.00259376
0.00256129
0.00254979
0.0025676
0.00264717
0.00333882
0.00318769
0.00303978
0.00289872
0.00276741
0.00264881
0.0025436
0.00244944
0.0023624
0.00227822
0.00220879
0.00220029
0.00328105
0.00314399
0.00300267
0.00285826
0.00271143
0.00256549
0.00241885
0.00226233
0.00208642
0.00186985
0.00161579
0.00140111
0.00288298
0.00304781
0.00315047
0.00324194
0.0033476
0.00344809
0.00354621
0.00362669
0.00369607
0.00374605
0.0037778
0.00367881
0.00279267
0.0031051
0.00323864
0.00333836
0.00344615
0.00354188
0.00362718
0.00368899
0.00372413
0.00373162
0.0037069
0.00357689
0.00233765
0.00299381
0.0032145
0.00333384
0.00344486
0.00354035
0.00362106
0.00366899
0.00368557
0.00367847
0.00363085
0.00349592
0.00141444
0.00266185
0.00308568
0.00325982
0.00337966
0.0034779
0.00355908
0.00360138
0.00361177
0.00360038
0.00354825
0.00342416
0.00349529
0.00333158
0.00317283
0.00302778
0.00290208
0.00280205
0.00272966
0.00268416
0.00266469
0.00266744
0.00270413
0.00278583
0.00340574
0.0032455
0.0030926
0.00295197
0.00282834
0.00272682
0.00264895
0.00259416
0.00256171
0.00255021
0.00256815
0.00264775
0.00333908
0.00318799
0.00304016
0.00289914
0.00276783
0.00264921
0.00254397
0.00244981
0.00236276
0.0022786
0.00220923
0.00220077
0.00328127
0.00314428
0.00300306
0.0028587
0.00271187
0.00256589
0.00241922
0.00226267
0.0020867
0.00187013
0.00161606
0.00140138
0.00288359
0.00304851
0.00315123
0.00324272
0.0033484
0.00344888
0.00354701
0.00362747
0.00369681
0.00374674
0.00377846
0.00367934
0.0027933
0.00310591
0.00323953
0.00333928
0.00344709
0.0035428
0.00362808
0.00368986
0.00372494
0.0037324
0.00370761
0.00357747
0.00233819
0.00299466
0.00321548
0.00333488
0.0034459
0.00354138
0.00362206
0.00366994
0.00368647
0.00367931
0.00363161
0.00349656
0.00141474
0.00266262
0.00308671
0.00326093
0.0033808
0.00347902
0.00356016
0.00360242
0.00361274
0.0036013
0.00354909
0.00342485
0.00349579
0.00333203
0.00317321
0.00302812
0.00290239
0.00280234
0.00272993
0.00268439
0.00266492
0.00266768
0.00270437
0.00278612
0.00340626
0.00324595
0.00309297
0.0029523
0.00282864
0.00272709
0.0026492
0.00259438
0.00256192
0.00255041
0.00256843
0.00264808
0.00333964
0.00318845
0.00304053
0.00289945
0.00276811
0.00264946
0.0025442
0.00245001
0.00236294
0.00227878
0.00220945
0.00220101
0.00328187
0.00314476
0.00300344
0.002859
0.00271214
0.00256612
0.00241942
0.00226285
0.00208683
0.00187027
0.0016162
0.00140153
0.00288391
0.00304889
0.00315169
0.0032432
0.00334896
0.00344951
0.00354765
0.00362817
0.00369758
0.00374756
0.00377927
0.0036801
0.00279362
0.00310634
0.00324005
0.00333982
0.00344766
0.00354343
0.00362874
0.00369055
0.00372567
0.00373314
0.00370833
0.00357814
0.00233848
0.00299512
0.00321602
0.00333542
0.00344648
0.00354199
0.00362269
0.00367059
0.00368713
0.00367998
0.00363227
0.00349715
0.0014149
0.00266306
0.00308722
0.00326146
0.00338134
0.00347959
0.00356074
0.00360299
0.00361333
0.0036019
0.00354967
0.00342537
0.00349643
0.00333256
0.00317367
0.00302851
0.00290274
0.00280265
0.00273019
0.00268462
0.0026651
0.0026678
0.0027043
0.00278585
0.00340683
0.00324643
0.00309338
0.00295265
0.00282895
0.00272734
0.00264939
0.00259451
0.00256196
0.00255042
0.00256804
0.00264756
0.00334015
0.00318889
0.0030409
0.00289977
0.00276837
0.00264967
0.00254435
0.00245008
0.00236294
0.00227868
0.0022091
0.00220055
0.00328234
0.00314516
0.00300376
0.00285927
0.00271234
0.00256631
0.00241955
0.0022629
0.0020869
0.00187019
0.001616
0.00140124
0.00288353
0.00304832
0.00315084
0.00324228
0.00334783
0.00344822
0.00354631
0.00362672
0.00369601
0.00374591
0.00377755
0.00367859
0.00279307
0.00310544
0.00323887
0.00333855
0.00344629
0.00354192
0.00362719
0.00368894
0.00372399
0.00373139
0.00370657
0.00357657
0.00233789
0.00299403
0.00321463
0.00333394
0.00344489
0.00354033
0.00362101
0.00366888
0.00368537
0.00367819
0.00363047
0.00349553
0.00141458
0.00266199
0.00308574
0.00325982
0.00337962
0.00347783
0.00355899
0.00360123
0.00361154
0.00360006
0.00354782
0.00342371
0.00322527
0.0031036
0.00297082
0.00282311
0.00265876
0.00248556
0.00229456
0.0020729
0.00180112
0.00143484
0.000876012
0.000268302
0.00316021
0.00305602
0.00293609
0.0027878
0.00261194
0.00241864
0.00219318
0.00192425
0.00159673
0.00118238
0.000599274
0.000139905
0.0030809
0.00299523
0.00289186
0.00274802
0.00257004
0.00236664
0.00212252
0.00183063
0.00148803
0.00110502
0.000605465
0.000121966
0.00298557
0.00291722
0.00283176
0.00269805
0.00252666
0.00232385
0.00207679
0.00178411
0.00145647
0.00112878
0.000700459
0.000124502
0.00286983
0.002818
0.00274893
0.00263065
0.0024727
0.00227941
0.00204134
0.00176203
0.00145854
0.0011496
0.000755286
0.000128842
0.00272684
0.00269043
0.00263653
0.0025365
0.00239676
0.00221914
0.00199681
0.00173539
0.00144875
0.00113352
0.000756762
0.000132148
0.00254446
0.00252286
0.00248334
0.00240248
0.00228407
0.0021256
0.00192155
0.00167718
0.00139935
0.00107668
0.00071654
0.000132938
0.00230362
0.00229627
0.00227027
0.0022081
0.00211288
0.0019754
0.00179191
0.00156353
0.00129342
0.000977553
0.000635735
0.000131222
0.00197312
0.001978
0.00196525
0.00192073
0.00184659
0.00173386
0.00157922
0.00136907
0.00111299
0.000823873
0.000516324
0.000126027
0.00150236
0.00151532
0.00151397
0.0014857
0.00143111
0.00134846
0.00123798
0.00106066
0.000842806
0.000606238
0.000358726
0.000116263
0.000825779
0.000838102
0.000842723
0.000830139
0.000801393
0.000756644
0.00069997
0.000603135
0.000458553
0.00031719
0.000168511
0.000100115
8.95824e-05
9.20043e-05
9.40526e-05
9.49818e-05
9.4577e-05
9.28106e-05
8.96231e-05
8.46135e-05
7.71383e-05
6.60154e-05
5.14472e-05
3.20751e-05
0.000352226
0.00218263
0.00288812
0.00313645
0.0032691
0.00337333
0.00345872
0.00350282
0.00351449
0.00350324
0.00345422
0.00335015
0.000306173
0.00193365
0.00268114
0.00297741
0.00312536
0.00323765
0.00332951
0.00338137
0.00340038
0.00339023
0.00334926
0.00326651
0.000282037
0.00173441
0.00247237
0.00279369
0.00295675
0.00307744
0.00317609
0.00323933
0.00326871
0.0032654
0.00323288
0.00316667
0.000263479
0.00155328
0.00226227
0.00259338
0.00276848
0.00289642
0.00300088
0.00307623
0.0031159
0.00312443
0.00310224
0.00305271
0.000247095
0.00137936
0.00204761
0.00237988
0.00256272
0.00269571
0.00280487
0.0028895
0.00293999
0.00296029
0.00295278
0.00292033
0.000231277
0.00120386
0.00182511
0.00215314
0.00233851
0.00247331
0.00258546
0.0026762
0.00273694
0.00276893
0.00277573
0.00276019
0.000215735
0.00101201
0.0015903
0.00191031
0.00209126
0.00222326
0.00233554
0.00242983
0.00249876
0.00254109
0.00256069
0.0025607
0.000200455
0.000804774
0.001338
0.00164595
0.00181165
0.00193421
0.00204236
0.00213701
0.00221077
0.00226085
0.00229071
0.00230397
0.00018424
0.000603653
0.00106762
0.0013479
0.00148318
0.00158722
0.00168491
0.00177476
0.00184819
0.0019016
0.00193769
0.0019606
0.000165547
0.000421554
0.000777149
0.000984817
0.00106934
0.00114337
0.00122259
0.00130151
0.00136999
0.00142141
0.00145696
0.00148318
0.00014369
0.00025497
0.000435939
0.00051765
0.000547907
0.000585112
0.000632448
0.000685002
0.000732946
0.000768559
0.000791899
0.000810513
3.78919e-05
4.17122e-05
5.00265e-05
5.71985e-05
6.21252e-05
6.61616e-05
7.01052e-05
7.42401e-05
7.81449e-05
8.15118e-05
8.44212e-05
8.70689e-05
0.00322547
0.00310387
0.0029712
0.00282355
0.00265921
0.00248595
0.00229491
0.0020732
0.00180135
0.00143501
0.000876117
0.000268343
0.00316042
0.00305623
0.00293645
0.00278825
0.00261237
0.00241903
0.00219354
0.00192455
0.00159695
0.00118252
0.00059932
0.000139931
0.0030811
0.00299539
0.00289219
0.00274845
0.00257045
0.00236704
0.00212289
0.00183093
0.00148827
0.00110521
0.000605547
0.000122
0.00298577
0.00291735
0.00283206
0.00269846
0.00252705
0.00232424
0.00207716
0.00178443
0.00145673
0.00112902
0.000700585
0.000124539
0.00287003
0.00281813
0.00274918
0.00263102
0.00247307
0.00227978
0.0020417
0.00176235
0.00145882
0.00114984
0.000755442
0.000128881
0.00272704
0.00269056
0.00263676
0.00253684
0.00239711
0.0022195
0.00199716
0.00173571
0.00144903
0.00113376
0.000756943
0.000132191
0.00254464
0.002523
0.00248357
0.00240279
0.0022844
0.00212595
0.00192189
0.0016775
0.00139963
0.00107692
0.000716713
0.000132982
0.00230378
0.00229642
0.00227049
0.00220839
0.0021132
0.00197574
0.00179224
0.00156385
0.0012937
0.000977788
0.000635899
0.000131267
0.00197326
0.00197815
0.00196548
0.00192099
0.0018469
0.00173418
0.00157954
0.00136937
0.00111326
0.000824087
0.000516459
0.000126072
0.00150246
0.00151545
0.00151417
0.00148592
0.00143138
0.00134873
0.00123825
0.00106093
0.000843035
0.000606409
0.000358824
0.000116305
0.000825852
0.000838187
0.000842846
0.000830288
0.000801556
0.000756812
0.000700131
0.000603307
0.000458701
0.000317286
0.000168565
0.000100153
8.95898e-05
9.2014e-05
9.40658e-05
9.49986e-05
9.45958e-05
9.28312e-05
8.96446e-05
8.46352e-05
7.71601e-05
6.60368e-05
5.14656e-05
3.20876e-05
0.000352301
0.00218328
0.00288915
0.00313762
0.00327031
0.00337453
0.00345988
0.00350392
0.00351552
0.00350424
0.00345512
0.00335091
0.000306243
0.00193427
0.00268218
0.00297862
0.00312663
0.00323891
0.00333073
0.00338253
0.00340147
0.00339127
0.00335022
0.00326734
0.000282104
0.00173501
0.00247342
0.00279494
0.00295807
0.00307875
0.00317736
0.00324053
0.00326985
0.00326647
0.00323388
0.00316756
0.000263544
0.00155388
0.0022633
0.00259463
0.0027698
0.00289775
0.00300218
0.00307746
0.00311707
0.00312554
0.00310325
0.00305362
0.000247159
0.00137995
0.00204862
0.00238111
0.00256403
0.00269702
0.00280616
0.00289075
0.00294118
0.00296141
0.00295381
0.00292123
0.00023134
0.00120443
0.00182608
0.00215432
0.00233976
0.00247457
0.00258671
0.00267742
0.0027381
0.00277002
0.00277674
0.00276108
0.000215796
0.00101255
0.00159121
0.0019114
0.00209242
0.00222442
0.00233669
0.00243097
0.00249985
0.00254213
0.00256164
0.00256156
0.000200513
0.000805261
0.00133882
0.00164691
0.00181265
0.00193522
0.00204337
0.00213802
0.00221174
0.00226177
0.00229156
0.00230474
0.000184295
0.000604062
0.00106832
0.00134869
0.00148398
0.00158802
0.00168572
0.00177557
0.00184898
0.00190235
0.00193838
0.00196123
0.000165598
0.000421857
0.000777711
0.000985358
0.00106988
0.0011439
0.00122314
0.00130206
0.00137054
0.00142193
0.00145745
0.00148361
0.000143735
0.000255142
0.000436259
0.000517913
0.000548167
0.000585367
0.000632715
0.000685276
0.000733216
0.000768818
0.000792139
0.000810728
3.79023e-05
4.17265e-05
5.00523e-05
5.72261e-05
6.21529e-05
6.61884e-05
7.01315e-05
7.42662e-05
7.817e-05
8.15354e-05
8.44433e-05
8.70889e-05
0.00322611
0.00310438
0.00297159
0.00282386
0.00265947
0.00248617
0.0022951
0.00207336
0.00180146
0.0014351
0.00087621
0.00026838
0.00316112
0.00305679
0.00293687
0.00278857
0.00261263
0.00241924
0.00219371
0.00192468
0.00159704
0.00118258
0.00059939
0.000139944
0.00308186
0.00299601
0.00289264
0.00274879
0.00257072
0.00236724
0.00212304
0.00183105
0.00148833
0.00110522
0.000605582
0.000122003
0.00298657
0.00291801
0.00283254
0.00269882
0.00252733
0.00232445
0.00207731
0.00178454
0.00145679
0.00112902
0.000700631
0.00012454
0.00287084
0.00281882
0.00274971
0.00263141
0.00247338
0.00228001
0.00204186
0.00176246
0.00145888
0.00114989
0.000755508
0.000128882
0.00272784
0.00269125
0.00263731
0.00253725
0.00239744
0.00221974
0.00199734
0.00173584
0.00144912
0.00113385
0.000757006
0.000132191
0.0025454
0.00252367
0.0024841
0.0024032
0.00228473
0.00212621
0.00192208
0.00167764
0.00139974
0.00107703
0.000716792
0.000132983
0.00230446
0.00229702
0.00227098
0.00220877
0.00211351
0.00197598
0.00179243
0.00156399
0.00129383
0.000977894
0.00063596
0.000131268
0.00197382
0.00197864
0.00196587
0.00192131
0.00184716
0.00173438
0.0015797
0.0013695
0.00111337
0.000824191
0.000516427
0.000126072
0.00150284
0.00151578
0.00151442
0.00148614
0.00143156
0.00134888
0.00123838
0.00106103
0.000843123
0.00060649
0.000358812
0.000116301