/*--------------------------------*- C++ -*----------------------------------*\
| =========                 |                                                 |
| \\      /  F ield         | OpenFOAM: The Open Source CFD Toolbox           |
|  \\    /   O peration     | Version:  v1912                                 |
|   \\  /    A nd           | Website:  www.openfoam.com                      |
|    \\/     M anipulation  |                                                 |
\*---------------------------------------------------------------------------*/
FoamFile
{
    version     2.0;
    format      ascii;
    class       volScalarField;
    location    "350";
    object      p;
}
// * * * * * * * * * * * * * * * * * * * * * * * * * * * * * * * * * * * * * //

dimensions      [0 2 -2 0 0 0 0];


internalField   nonuniform List<scalar> 
3072
(
-0.000181838
-0.121733
-0.230666
-0.302032
-0.329822
-0.30668
-0.273531
-0.185135
-0.00981534
0.0776295
-0.109281
-0.38893
0.665211
0.463722
0.335105
0.270516
0.280594
0.419273
0.673737
0.978321
1.66364
2.16008
2.35779
2.4983
1.37231
1.08724
0.975565
0.986059
1.12477
1.44405
1.90002
2.30864
2.70865
3.01543
3.21928
3.37713
2.29499
2.05248
2.02033
2.154
2.48749
2.92441
3.36051
3.75316
4.10301
4.36445
4.56845
4.72982
3.32263
3.1956
3.27053
3.53176
3.92938
4.36046
4.76315
5.1203
5.42238
5.65124
5.8284
5.96317
4.38332
4.37354
4.55114
4.88824
5.30339
5.71287
6.07819
6.38472
6.6331
6.82518
6.97384
7.08623
5.43166
5.55473
5.81241
6.19242
6.60562
6.98548
7.30565
7.56345
7.76607
7.92083
8.03849
8.12628
6.47645
6.74788
7.06278
7.46076
7.85099
8.18574
8.45358
8.66034
8.81676
8.93288
9.01906
9.08232
7.54008
7.97429
8.32128
8.70835
9.05081
9.32358
9.52905
9.67889
9.78619
9.86233
9.91703
9.95639
8.64648
9.20498
9.5687
9.92317
10.2011
10.3958
10.528
10.6149
10.6707
10.7065
10.731
10.7482
9.79827
10.5079
10.8284
11.0701
11.2551
11.3585
11.4126
11.4376
11.4461
11.4475
11.4484
11.4496
10.8209
11.8309
12.016
12.0628
12.1259
12.1393
12.1269
12.1049
12.0822
12.0646
12.0559
12.0523
-0.629331
-0.71307
-0.659844
-0.448769
-0.119009
0.324546
0.840422
1.37673
1.85425
2.23518
2.41254
2.26784
2.58092
2.62753
2.67163
2.73114
2.81904
2.93312
3.06117
3.18696
3.29185
3.46686
3.41268
2.73339
3.46933
3.54255
3.61547
3.7035
3.80185
3.8984
3.98468
4.0313
4.00917
3.98738
3.84264
2.86157
4.84778
4.94191
5.01624
5.07278
5.10989
5.12475
5.11123
5.03624
4.8779
4.68147
4.40433
3.1487
6.06014
6.13053
6.17885
6.20666
6.2124
6.19125
6.1321
6.02016
5.82304
5.54151
5.20785
3.75549
7.16779
7.22489
7.2606
7.27591
7.26945
7.23716
7.16852
7.05041
6.85756
6.5662
6.21798
4.77371
8.18957
8.23299
8.25916
8.26923
8.2627
8.23699
8.18561
8.09752
7.95313
7.72692
7.45051
6.15527
9.12778
9.15913
9.1792
9.18985
9.19193
9.18508
9.16654
9.13081
9.06943
8.96245
8.84701
7.89038
9.98498
10.0054
10.0209
10.0342
10.0482
10.0655
10.0869
10.1143
10.1541
10.2047
10.3352
9.9094
10.7618
10.7726
10.7839
10.7988
10.8232
10.8634
10.9234
11.0128
11.1508
11.3659
11.8502
12.1448
11.4533
11.4572
11.4655
11.4809
11.5108
11.566
11.6541
11.7909
12.0024
12.3546
13.2332
14.4101
12.0553
12.0574
12.0649
12.0802
12.11
12.1681
12.2644
12.4196
12.6524
13.0516
14.0323
15.9025
0.000479636
-0.12108
-0.230161
-0.3016
-0.329513
-0.306415
-0.273203
-0.184906
-0.00991698
0.0783182
-0.107979
-0.387693
0.665748
0.464211
0.335461
0.27074
0.280604
0.418784
0.673293
0.977165
1.66217
2.15966
2.35766
2.49846
1.37278
1.08745
0.975424
0.985549
1.12393
1.44253
1.89871
2.30755
2.70768
3.01506
3.21906
3.37712
2.29516
2.05203
2.01945
2.15241
2.48552
2.92265
3.35914
3.7521
4.10224
4.364
4.56816
4.72969
3.32267
3.195
3.2693
3.53005
3.92771
4.35913
4.76217
5.11953
5.42187
5.65093
5.82823
5.96308
4.38357
4.37307
4.55016
4.88701
5.30228
5.71205
6.07756
6.38433
6.63282
6.82507
6.97376
7.08624
5.43216
5.5545
5.81178
6.19168
6.60502
6.98505
7.30538
7.5633
7.76603
7.92084
8.03855
8.12634
6.47714
6.74788
7.0625
7.46042
7.85075
8.18562
8.45355
8.66039
8.81686
8.93301
9.0192
9.08245
7.54075
7.97443
8.32123
8.70828
9.05081
9.32366
9.52919
9.67906
9.7864
9.86254
9.91723
9.95658
8.64703
9.20516
9.56881
9.92326
10.2013
10.396
10.5283
10.6151
10.6709
10.7067
10.7312
10.7484
9.79867
10.5081
10.8285
11.0703
11.2553
11.3587
11.4129
11.4379
11.4464
11.4478
11.4487
11.4498
10.8212
11.831
12.0161
12.063
12.1261
12.1396
12.1271
12.1051
12.0824
12.0648
12.0561
12.0525
-0.628155
-0.712152
-0.659089
-0.448232
-0.118607
0.324783
0.84057
1.37679
1.85426
2.23514
2.41245
2.26778
2.58116
2.62781
2.67185
2.73131
2.81913
2.93318
3.06118
3.18695
3.29182
3.4668
3.41264
2.73338
3.46939
3.54268
3.61558
3.70359
3.80191
3.89845
3.98469
4.03131
4.00917
3.98738
3.84267
2.86162
4.84771
4.94189
5.01624
5.0728
5.10991
5.12477
5.11124
5.03625
4.8779
4.68148
4.40436
3.14876
6.06013
6.13054
6.17888
6.20669
6.21243
6.19128
6.13213
6.02018
5.82307
5.54153
5.20787
3.75553
7.1678
7.22494
7.26064
7.27596
7.2695
7.23721
7.16854
7.05045
6.85758
6.56619
6.21799
4.77372
8.18966
8.23307
8.25924
8.2693
8.26277
8.23705
8.18566
8.09756
7.95315
7.72694
7.45047
6.15524
9.12791
9.15925
9.17932
9.18995
9.19203
9.18517
9.16661
9.13086
9.06947
8.96242
8.84697
7.89031
9.98515
10.0056
10.0211
10.0343
10.0484
10.0656
10.087
10.1144
10.1541
10.2048
10.3351
9.9093
10.762
10.7728
10.784
10.799
10.8234
10.8635
10.9235
11.0129
11.1509
11.366
11.8502
12.1447
11.4535
11.4574
11.4657
11.4811
11.5109
11.5662
11.6543
11.791
12.0025
12.3546
13.2332
14.41
12.0555
12.0576
12.0651
12.0803
12.1102
12.1682
12.2646
12.4198
12.6526
13.0517
14.0323
15.9024
0.0005829
-0.120911
-0.229861
-0.301251
-0.329101
-0.305978
-0.272824
-0.184479
-0.00928517
0.0783872
-0.108209
-0.387722
0.666008
0.464646
0.3361
0.271525
0.281509
0.419925
0.674357
0.978736
1.66377
2.16042
2.35822
2.49886
1.37319
1.08824
0.97658
0.987006
1.12556
1.44459
1.9005
2.30914
2.70911
3.01602
3.21989
3.37781
2.29574
2.05321
2.02102
2.15454
2.48791
2.92479
3.36091
3.75358
4.10346
4.36495
4.56897
4.73038
3.32329
3.19618
3.27103
3.53217
3.92974
4.36082
4.76354
5.1207
5.42281
5.65171
5.8289
5.96368
4.384
4.37409
4.55161
4.88863
5.30374
5.71321
6.07854
6.3851
6.63351
6.82563
6.9743
7.08671
5.43236
5.55529
5.81288
6.19281
6.60595
6.9858
7.30598
7.56381
7.76646
7.92125
8.03893
8.12673
6.47711
6.74844
7.06324
7.46114
7.85131
8.18604
8.4539
8.66069
8.81714
8.93329
9.01948
9.08275
7.54067
7.97481
8.32173
8.70872
9.05113
9.3239
9.52938
9.67924
9.78658
9.86273
9.91744
9.95682
8.64696
9.20544
9.5691
9.92351
10.2015
10.3962
10.5284
10.6153
10.671
10.7069
10.7314
10.7486
9.79866
10.5083
10.8288
11.0704
11.2554
11.3588
11.4129
11.438
11.4465
11.4479
11.4488
11.45
10.8212
11.8313
12.0163
12.0631
12.1262
12.1396
12.1272
12.1052
12.0825
12.0649
12.0563
12.0527
-0.628016
-0.711761
-0.658563
-0.447569
-0.117903
0.325514
0.841247
1.37739
1.85477
2.23555
2.41282
2.26816
2.58156
2.62824
2.67236
2.73188
2.81974
2.9338
3.06178
3.1875
3.29232
3.46723
3.41298
2.73379
3.47005
3.54329
3.61619
3.7042
3.80252
3.89903
3.98526
4.03184
4.00968
3.98784
3.84306
2.86212
4.84836
4.9425
5.01683
5.07337
5.11048
5.12532
5.11179
5.03679
4.87844
4.68202
4.40486
3.14937
6.06067
6.13107
6.1794
6.20721
6.21294
6.19179
6.13264
6.0207
5.8236
5.54209
5.20841
3.75621
7.16828
7.22538
7.26111
7.27641
7.26996
7.23767
7.16902
7.05092
6.85809
6.56677
6.21856
4.77444
8.19003
8.23345
8.25962
8.2697
8.26317
8.23746
8.18608
8.098
7.95363
7.72746
7.45108
6.15597
9.12822
9.15957
9.17964
9.19029
9.19237
9.18552
9.16697
9.13125
9.06988
8.96294
8.84753
7.891
9.9854
10.0059
10.0213
10.0346
10.0487
10.0659
10.0873
10.1147
10.1545
10.2052
10.3357
9.90993
10.7622
10.773
10.7843
10.7992
10.8236
10.8638
10.9238
11.0131
11.1511
11.3663
11.8506
12.1452
11.4537
11.4577
11.4659
11.4814
11.5112
11.5664
11.6545
11.7912
12.0027
12.3549
13.2335
14.4104
12.0557
12.0578
12.0654
12.0806
12.1104
12.1685
12.2648
12.42
12.6527
13.0518
14.0325
15.9026
0.000298853
-0.121265
-0.230353
-0.301793
-0.329706
-0.306618
-0.273421
-0.185106
-0.0100712
0.0781036
-0.108328
-0.388121
0.665565
0.46402
0.335267
0.270554
0.28043
0.418618
0.673131
0.97708
1.66216
2.15959
2.35755
2.49829
1.37259
1.08723
0.9752
0.985327
1.12374
1.44237
1.89857
2.30742
2.70757
3.01492
3.21889
3.37693
2.29496
2.05178
2.01919
2.15215
2.4853
2.92248
3.359
3.752
4.10214
4.36389
4.56803
4.72954
3.32248
3.19475
3.26904
3.5298
3.92751
4.35899
4.76207
5.11946
5.4218
5.65085
5.82814
5.96296
4.38341
4.37286
4.54994
4.88681
5.30215
5.71197
6.07752
6.3843
6.63279
6.82502
6.97369
7.08615
5.43204
5.55432
5.81161
6.19156
6.60496
6.98504
7.3054
7.56331
7.76603
7.92082
8.03851
8.12627
6.47706
6.74775
7.0624
7.46038
7.85076
8.18567
8.45361
8.66044
8.81689
8.93301
9.01917
9.0824
7.5407
7.97435
8.32118
8.70829
9.05086
9.32374
9.52927
9.67913
9.78644
9.86255
9.91721
9.95653
8.64702
9.20513
9.56881
9.92331
10.2013
10.3961
10.5283
10.6152
10.671
10.7067
10.7312
10.7484
9.79869
10.5081
10.8286
11.0703
11.2554
11.3588
11.4129
11.438
11.4464
11.4478
11.4486
11.4497
10.8213
11.8311
12.0162
12.0631
12.1262
12.1397
12.1272
12.1052
12.0825
12.0648
12.0561
12.0525
-0.628654
-0.712679
-0.659625
-0.448747
-0.119086
0.324363
0.840214
1.3765
1.85405
2.235
2.41239
2.26767
2.58094
2.62756
2.67158
2.73104
2.81885
2.93292
3.06094
3.18673
3.29163
3.46668
3.41252
2.7332
3.46917
3.54243
3.61532
3.70332
3.80164
3.89818
3.98445
4.03107
4.00894
3.98716
3.84245
2.86133
4.84754
4.9417
5.01602
5.07257
5.10968
5.12452
5.11099
5.03599
4.87764
4.68121
4.40408
3.14841
6.05998
6.13037
6.17869
6.20648
6.2122
6.19103
6.13186
6.0199
5.82277
5.54122
5.20755
3.75516
7.16768
7.22479
7.26047
7.27577
7.26927
7.23697
7.16828
7.05016
6.85728
6.56588
6.21765
4.77334
8.18956
8.23294
8.25908
8.26912
8.26256
8.23681
8.1854
8.09727
7.95284
7.72661
7.45014
6.15488
9.12782
9.15913
9.17916
9.18977
9.19182
9.18493
9.16634
9.13058
9.06917
8.9621
8.84665
7.88998
9.98506
10.0055
10.0209
10.0341
10.0481
10.0653
10.0867
10.1141
10.1538
10.2044
10.3348
9.909
10.7619
10.7727
10.7839
10.7988
10.8232
10.8633
10.9233
11.0126
11.1506
11.3656
11.8499
12.1444
11.4534
11.4573
11.4655
11.4809
11.5107
11.5659
11.654
11.7907
12.0022
12.3543
13.2328
14.4097
12.0554
12.0574
12.065
12.0801
12.1099
12.168
12.2643
12.4195
12.6522
13.0514
14.032
15.902
12.8571
13.025
12.9101
12.7903
12.733
12.6823
12.6327
12.5899
12.5604
12.5454
12.5463
12.5536
13.2313
13.0935
13.081
13.0315
12.999
12.9625
12.9248
12.8969
12.8879
12.8984
12.9288
12.9634
13.3944
13.2978
13.2608
13.1995
13.1525
13.1134
13.0865
13.0812
13.1045
13.1552
13.2307
13.3084
13.5138
13.4268
13.3542
13.2744
13.2076
13.1606
13.1425
13.1645
13.2338
13.3487
13.5007
13.6615
12.5687
12.575
12.5852
12.5993
12.6242
12.6732
12.7576
12.8994
13.0921
13.3746
13.7026
14.6306
13.0049
13.0198
13.0353
13.0454
13.0587
13.0872
13.1434
13.251
13.39
13.5931
13.6801
13.9553
13.3877
13.4089
13.4304
13.4299
13.4223
13.4189
13.4316
13.4852
13.5578
13.6954
13.7108
13.7882
13.7985
13.8086
13.8307
13.8051
13.7592
13.7023
13.6445
13.6119
13.5928
13.6498
13.6323
13.6963
12.8575
13.0251
12.9101
12.7904
12.7331
12.6825
12.6329
12.5901
12.5606
12.5456
12.5465
12.5537
13.2317
13.0936
13.0811
13.0316
12.9991
12.9627
12.925
12.897
12.8881
12.8986
12.9289
12.9635
13.3949
13.2981
13.2609
13.1997
13.1526
13.1135
13.0865
13.0812
13.1046
13.1553
13.2308
13.3086
13.5143
13.4271
13.3544
13.2745
13.2077
13.1606
13.1425
13.1644
13.2338
13.3487
13.5008
13.6616
12.5689
12.5752
12.5854
12.5994
12.6244
12.6734
12.7577
12.8995
13.0923
13.3747
13.7027
14.6307
13.005
13.02
13.0355
13.0456
13.0589
13.0874
13.1436
13.2512
13.3902
13.5933
13.6803
13.9554
13.3879
13.4091
13.4306
13.4301
13.4226
13.4191
13.4318
13.4855
13.558
13.6956
13.711
13.7884
13.7987
13.8088
13.8309
13.8054
13.7595
13.7025
13.6448
13.6122
13.593
13.6501
13.6325
13.6965
12.8575
13.0253
12.9103
12.7905
12.7332
12.6826
12.6329
12.5902
12.5607
12.5458
12.5466
12.5539
13.2319
13.0938
13.0812
13.0317
12.9992
12.9628
12.925
12.8971
12.8882
12.8987
12.9291
12.9637
13.3951
13.2983
13.2611
13.1998
13.1527
13.1136
13.0866
13.0813
13.1046
13.1553
13.2309
13.3087
13.5145
13.4273
13.3546
13.2747
13.2079
13.1607
13.1425
13.1645
13.2338
13.3488
13.5008
13.6618
12.5691
12.5754
12.5856
12.5997
12.6246
12.6736
12.7579
12.8997
13.0924
13.3747
13.7027
14.6309
13.0052
13.0202
13.0357
13.0458
13.0591
13.0876
13.1438
13.2513
13.3903
13.5933
13.6803
13.9555
13.3881
13.4093
13.4309
13.4303
13.4228
13.4193
13.432
13.4856
13.5582
13.6957
13.711
13.7885
13.7989
13.809
13.8311
13.8056
13.7596
13.7027
13.645
13.6124
13.5932
13.6503
13.6327
13.6967
12.8576
13.0252
12.9103
12.7906
12.7333
12.6827
12.6331
12.5903
12.5608
12.5457
12.5465
12.5537
13.232
13.0939
13.0814
13.0319
12.9995
12.963
12.9253
12.8973
12.8883
12.8988
12.929
12.9635
13.3952
13.2984
13.2613
13.2001
13.1531
13.114
13.087
13.0816
13.1049
13.1555
13.231
13.3086
13.5147
13.4275
13.3548
13.275
13.2083
13.1612
13.1431
13.165
13.2343
13.3491
13.501
13.6617
12.5688
12.575
12.5852
12.5992
12.6241
12.6732
12.7574
12.8992
13.0919
13.3743
13.7023
14.6302
13.005
13.0198
13.0353
13.0454
13.0587
13.0871
13.1433
13.2508
13.3898
13.5929
13.6798
13.9549
13.3878
13.4089
13.4304
13.4299
13.4223
13.4188
13.4315
13.4851
13.5576
13.6952
13.7105
13.7878
13.7986
13.8086
13.8307
13.8051
13.7592
13.7022
13.6444
13.6118
13.5926
13.6496
13.632
13.6959
13.6219
13.556
13.48
13.4021
13.3316
13.2787
13.2538
13.2682
13.3293
13.4368
13.5815
13.7509
13.7306
13.6724
13.6069
13.5415
13.4807
13.4312
13.4012
13.3995
13.4327
13.5023
13.6023
13.7265
13.8138
13.7605
13.7019
13.6433
13.5861
13.5352
13.4976
13.482
13.4965
13.5446
13.6244
13.7321
13.8757
13.8257
13.7706
13.7142
13.6557
13.5992
13.5515
13.5221
13.5222
13.5596
13.6343
13.6921
13.9507
13.9823
14.0204
14.0001
13.9578
13.8965
13.8269
13.7653
13.7105
13.7064
13.6638
13.6961
13.9602
13.9871
14.0379
14.0351
14.0167
13.9833
13.9444
13.9088
13.8741
13.8604
13.8168
13.8034
14.0318
14.0224
14.0751
14.0805
14.0731
14.0528
14.0275
14.0018
13.9735
13.9526
13.9097
13.8794
14.2112
14.0964
14.1231
14.1269
14.1221
14.1075
14.088
14.0656
14.0387
14.0125
13.9699
13.9332
13.6224
13.5563
13.4803
13.4023
13.3318
13.2787
13.2538
13.2682
13.3292
13.4368
13.5816
13.7511
13.731
13.6727
13.6072
13.5417
13.4808
13.4312
13.4012
13.3995
13.4327
13.5024
13.6024
13.7267
13.8141
13.7608
13.7022
13.6435
13.5863
13.5353
13.4977
13.4821
13.4966
13.5446
13.6245
13.7323
13.876
13.8259
13.7709
13.7144
13.6559
13.5993
13.5515
13.5221
13.5223
13.5597
13.6345
13.6924
13.9509
13.9825
14.0207
14.0004
13.958
13.8968
13.8272
13.7656
13.7108
13.7067
13.6641
13.6963
13.9604
13.9873
14.0382
14.0354
14.017
13.9836
13.9447
13.9091
13.8744
13.8607
13.8171
13.8036
14.032
14.0226
14.0754
14.0808
14.0734
14.0531
14.0278
14.0021
13.9737
13.9528
13.91
13.8796
14.2115
14.0967
14.1234
14.1272
14.1224
14.1078
14.0883
14.0659
14.039
14.0128
13.9702
13.9334
13.6226
13.5565
13.4805
13.4025
13.3319
13.2788
13.2539
13.2682
13.3292
13.4368
13.5816
13.7512
13.7312
13.6729
13.6074
13.5418
13.481
13.4314
13.4013
13.3996
13.4328
13.5024
13.6024
13.7268
13.8143
13.761
13.7023
13.6437
13.5864
13.5355
13.4978
13.4822
13.4967
13.5447
13.6246
13.7323
13.8762
13.8261
13.771
13.7145
13.656
13.5995
13.5517
13.5222
13.5224
13.5598
13.6345
13.6923
13.9511
13.9827
14.0209
14.0006
13.9582
13.897
13.8274
13.7658
13.711
13.7069
13.6643
13.6965
13.9607
13.9875
14.0384
14.0356
14.0172
13.9838
13.9449
13.9093
13.8746
13.8609
13.8173
13.8038
14.0323
14.0229
14.0756
14.081
14.0737
14.0534
14.028
14.0024
13.974
13.9531
13.9102
13.8798
14.2119
14.097
14.1237
14.1275
14.1226
14.1081
14.0886
14.0662
14.0392
14.013
13.9704
13.9337
13.6228
13.5568
13.4808
13.4028
13.3323
13.2793
13.2544
13.2688
13.3298
13.4373
13.5818
13.7512
13.7314
13.6731
13.6076
13.5421
13.4813
13.4318
13.4017
13.4
13.4332
13.5028
13.6027
13.7269
13.8145
13.7612
13.7026
13.6439
13.5867
13.5358
13.4982
13.4826
13.497
13.545
13.6248
13.7324
13.8764
13.8264
13.7713
13.7148
13.6563
13.5998
13.552
13.5226
13.5227
13.5601
13.6348
13.6925
13.9508
13.9823
14.0204
14.0001
13.9577
13.8965
13.8268
13.7652
13.7103
13.7062
13.6636
13.6957
13.9604
13.9871
14.0379
14.0351
14.0167
13.9832
13.9443
13.9087
13.874
13.8603
13.8166
13.8031
14.0319
14.0225
14.0751
14.0805
14.0731
14.0528
14.0274
14.0017
13.9733
13.9524
13.9095
13.8791
14.2114
14.0965
14.1232
14.1269
14.122
14.1075
14.0879
14.0655
14.0386
14.0124
13.9698
13.933
13.9203
13.8714
13.817
13.7591
13.696
13.6309
13.5704
13.5248
13.5056
13.5153
13.5542
13.4621
13.9507
13.901
13.8449
13.783
13.7131
13.638
13.5642
13.5025
13.4651
13.452
13.489
13.476
13.9698
13.9182
13.859
13.7918
13.7146
13.6301
13.5452
13.4722
13.4265
13.4131
13.4472
13.4678
13.9807
13.9269
13.864
13.7914
13.7078
13.616
13.5239
13.4462
13.4008
13.3946
13.4297
13.4662
13.9861
13.93
13.8638
13.7867
13.6982
13.6019
13.5067
13.4295
13.3885
13.3895
13.4299
13.475
13.9882
13.9302
13.8615
13.7811
13.6896
13.5912
13.4961
13.4224
13.3872
13.3956
13.4435
13.4924
13.9889
13.9296
13.8593
13.7769
13.684
13.5854
13.4922
13.4233
13.394
13.409
13.4637
13.5148
13.9897
13.9297
13.8587
13.7757
13.6826
13.5848
13.4941
13.4299
13.4056
13.4266
13.4868
13.5387
13.9919
13.9319
13.8612
13.7785
13.686
13.5894
13.5008
13.4405
13.4193
13.4446
13.5084
13.5611
13.9972
13.9387
13.8694
13.7878
13.6964
13.6005
13.5122
13.4536
13.4319
13.4589
13.5247
13.5792
14.0075
13.9521
13.8857
13.8065
13.7163
13.62
13.5296
13.4692
13.4425
13.4686
13.537
13.5894
14.0172
13.9656
13.903
13.8274
13.7401
13.6447
13.5553
13.4842
13.4558
13.4795
13.5449
13.5917
14.5453
14.2503
14.1775
14.1684
14.1608
14.1484
14.1315
14.1103
14.0838
14.0546
14.0126
13.9729
14.5255
14.3144
14.2163
14.1992
14.19
14.1783
14.1623
14.1413
14.1145
14.0834
14.0422
14.001
14.4722
14.3115
14.2401
14.2201
14.2115
14.1999
14.1841
14.1624
14.1349
14.1024
14.0617
14.0194
14.4183
14.2949
14.2538
14.2342
14.2268
14.2154
14.1992
14.1766
14.148
14.1143
14.0737
14.0305
14.3748
14.2819
14.2617
14.2443
14.2377
14.2264
14.2096
14.1859
14.1562
14.1214
14.0807
14.0366
14.3466
14.2748
14.267
14.2519
14.2457
14.2342
14.2165
14.1918
14.161
14.1253
14.0844
14.0395
14.334
14.2749
14.2715
14.2583
14.2517
14.2396
14.221
14.1953
14.1636
14.1273
14.0863
14.0409
14.3332
14.2829
14.2763
14.2639
14.2561
14.243
14.2237
14.1971
14.1649
14.1283
14.0874
14.0419
14.3403
14.2975
14.2821
14.2688
14.2585
14.2445
14.2246
14.1976
14.1652
14.1289
14.0886
14.0436
14.3512
14.3154
14.2888
14.2715
14.2576
14.2428
14.2231
14.1965
14.1649
14.1297
14.0909
14.0475
14.365
14.3313
14.2964
14.272
14.2538
14.2377
14.2185
14.1933
14.1637
14.1311
14.0951
14.0546
14.3797
14.3441
14.3019
14.2737
14.2521
14.2342
14.2143
14.1901
14.1626
14.1324
14.0989
14.0611
13.9206
13.8716
13.8173
13.7593
13.6962
13.631
13.5705
13.5249
13.5057
13.5153
13.5543
13.4622
13.9509
13.9012
13.8452
13.7832
13.7132
13.6382
13.5643
13.5025
13.4651
13.452
13.4891
13.4761
13.97
13.9184
13.8593
13.792
13.7147
13.6302
13.5452
13.4722
13.4265
13.4132
13.4473
13.4679
13.9809
13.9271
13.8642
13.7916
13.7079
13.6161
13.5239
13.4462
13.4008
13.3946
13.4297
13.4663
13.9863
13.9302
13.864
13.7869
13.6984
13.602
13.5068
13.4295
13.3884
13.3895
13.43
13.4751
13.9884
13.9304
13.8617
13.7813
13.6898
13.5913
13.4961
13.4224
13.3872
13.3956
13.4436
13.4925
13.9891
13.9298
13.8594
13.7771
13.6842
13.5855
13.4922
13.4232
13.3939
13.409
13.4638
13.5149
13.9899
13.9299
13.8589
13.7759
13.6827
13.5849
13.4941
13.4299
13.4056
13.4266
13.4869
13.5388
13.992
13.9321
13.8614
13.7787
13.6862
13.5895
13.5009
13.4405
13.4193
13.4446
13.5085
13.5612
13.9974
13.9389
13.8695
13.788
13.6966
13.6006
13.5123
13.4536
13.432
13.459
13.5248
13.5794
14.0077
13.9523
13.8859
13.8067
13.7164
13.6201
13.5297
13.4692
13.4425
13.4687
13.5371
13.5896
14.0174
13.9658
13.9032
13.8276
13.7402
13.6449
13.5554
13.4842
13.4559
13.4796
13.545
13.5919
14.5458
14.2507
14.1778
14.1687
14.1611
14.1487
14.1318
14.1106
14.0841
14.0548
14.0128
13.9731
14.526
14.3148
14.2166
14.1995
14.1903
14.1786
14.1626
14.1416
14.1148
14.0837
14.0425
14.0012
14.4726
14.3119
14.2404
14.2204
14.2118
14.2002
14.1844
14.1627
14.1351
14.1026
14.0619
14.0196
14.4187
14.2953
14.2541
14.2345
14.2271
14.2157
14.1995
14.1769
14.1483
14.1145
14.074
14.0307
14.3752
14.2823
14.2621
14.2446
14.2381
14.2267
14.2099
14.1862
14.1565
14.1216
14.0809
14.0368
14.347
14.2752
14.2673
14.2523
14.2461
14.2345
14.2169
14.1921
14.1613
14.1256
14.0846
14.0397
14.3344
14.2753
14.2718
14.2586
14.2521
14.2399
14.2213
14.1956
14.1639
14.1276
14.0865
14.0411
14.3336
14.2833
14.2767
14.2643
14.2564
14.2434
14.224
14.1974
14.1651
14.1285
14.0876
14.0421
14.3407
14.2979
14.2824
14.2691
14.2588
14.2448
14.2249
14.1979
14.1655
14.1291
14.0888
14.0438
14.3516
14.3158
14.2891
14.2719
14.258
14.2431
14.2234
14.1968
14.1651
14.1299
14.0912
14.0477
14.3654
14.3317
14.2968
14.2724
14.2541
14.2381
14.2188
14.1935
14.164
14.1314
14.0953
14.0548
14.3801
14.3445
14.3023
14.274
14.2525
14.2346
14.2146
14.1903
14.1628
14.1326
14.0991
14.0613
13.9208
13.8718
13.8174
13.7595
13.6963
13.6312
13.5707
13.525
13.5058
13.5154
13.5543
13.4621
13.9511
13.9014
13.8453
13.7834
13.7134
13.6383
13.5645
13.5027
13.4652
13.452
13.4891
13.4761
13.9702
13.9186
13.8594
13.7922
13.7149
13.6304
13.5454
13.4723
13.4265
13.4132
13.4472
13.4679
13.9811
13.9272
13.8644
13.7918
13.7081
13.6163
13.5241
13.4463
13.4008
13.3946
13.4297
13.4662
13.9864
13.9304
13.8642
13.787
13.6985
13.6022
13.5069
13.4296
13.3885
13.3896
13.43
13.4751
13.9885
13.9306
13.8619
13.7815
13.6899
13.5915
13.4963
13.4225
13.3873
13.3956
13.4436
13.4924
13.9893
13.93
13.8596
13.7773
13.6843
13.5857
13.4924
13.4234
13.394
13.4091
13.4638
13.5149
13.9901
13.9301
13.859
13.776
13.6829
13.5851
13.4943
13.43
13.4057
13.4266
13.4869
13.5388
13.9922
13.9323
13.8615
13.7789
13.6863
13.5897
13.501
13.4406
13.4194
13.4446
13.5086
13.5612
13.9976
13.9391
13.8697
13.7882
13.6967
13.6008
13.5124
13.4537
13.432
13.459
13.5248
13.5793
14.0078
13.9525
13.8861
13.8068
13.7166
13.6202
13.5298
13.4693
13.4425
13.4687
13.5371
13.5896
14.0176
13.9659
13.9034
13.8278
13.7404
13.645
13.5555
13.4843
13.4559
13.4796
13.545
13.5919
14.5463
14.2511
14.1781
14.169
14.1614
14.149
14.132
14.1109
14.0844
14.0551
14.0131
13.9734
14.5265
14.3152
14.217
14.1999
14.1906
14.1789
14.1629
14.1418
14.1151
14.0839
14.0427
14.0014
14.4731
14.3122
14.2408
14.2207
14.2121
14.2005
14.1847
14.163
14.1354
14.1029
14.0622
14.0198
14.4191
14.2957
14.2545
14.2349
14.2274
14.216
14.1998
14.1772
14.1486
14.1148
14.0742
14.0309
14.3756
14.2826
14.2624
14.2449
14.2384
14.227
14.2102
14.1865
14.1568
14.1219
14.0811
14.037
14.3474
14.2756
14.2677
14.2526
14.2464
14.2348
14.2172
14.1924
14.1616
14.1258
14.0849
14.0399
14.3348
14.2757
14.2722
14.259
14.2524
14.2402
14.2216
14.1959
14.1642
14.1278
14.0867
14.0413
14.334
14.2837
14.2771
14.2646
14.2568
14.2437
14.2243
14.1977
14.1654
14.1288
14.0879
14.0423
14.3411
14.2983
14.2828
14.2695
14.2592
14.2451
14.2252
14.1982
14.1658
14.1294
14.0891
14.0441
14.3521
14.3162
14.2895
14.2722
14.2583
14.2434
14.2237
14.1971
14.1654
14.1302
14.0914
14.0479
14.3659
14.3321
14.2972
14.2727
14.2545
14.2384
14.2191
14.1938
14.1643
14.1316
14.0956
14.055
14.3806
14.345
14.3027
14.2744
14.2528
14.2349
14.2149
14.1906
14.1631
14.1329
14.0993
14.0615
13.921
13.8721
13.8177
13.7597
13.6966
13.6314
13.571
13.5253
13.5061
13.5157
13.5546
13.4625
13.9513
13.9016
13.8455
13.7836
13.7136
13.6386
13.5647
13.503
13.4655
13.4524
13.4894
13.4764
13.9704
13.9188
13.8596
13.7923
13.7151
13.6306
13.5456
13.4726
13.4269
13.4136
13.4476
13.4682
13.9813
13.9274
13.8646
13.7919
13.7083
13.6165
13.5243
13.4466
13.4012
13.395
13.4301
13.4666
13.9867
13.9306
13.8644
13.7872
13.6987
13.6024
13.5072
13.43
13.3889
13.3899
13.4304
13.4755
13.9888
13.9308
13.862
13.7816
13.6901
13.5917
13.4966
13.4229
13.3876
13.396
13.4439
13.4928
13.9895
13.9301
13.8598
13.7775
13.6845
13.5859
13.4926
13.4237
13.3944
13.4095
13.4641
13.5153
13.9903
13.9302
13.8592
13.7762
13.683
13.5853
13.4946
13.4304
13.4061
13.427
13.4873
13.5392
13.9924
13.9325
13.8617
13.779
13.6865
13.5899
13.5013
13.4409
13.4197
13.445
13.5089
13.5615
13.9978
13.9392
13.8699
13.7883
13.6969
13.601
13.5127
13.454
13.4324
13.4594
13.5251
13.5797
14.008
13.9527
13.8863
13.807
13.7168
13.6204
13.5301
13.4696
13.4429
13.4691
13.5375
13.5899
14.0178
13.9661
13.9036
13.828
13.7406
13.6452
13.5557
13.4846
13.4563
13.48
13.5454
13.5922
14.5455
14.2504
14.1775
14.1684
14.1608
14.1483
14.1314
14.1102
14.0837
14.0545
14.0125
13.9727
14.5256
14.3145
14.2163
14.1992
14.19
14.1783
14.1623
14.1412
14.1144
14.0833
14.0421
14.0008
14.4723
14.3115
14.2402
14.2201
14.2115
14.1999
14.184
14.1623
14.1348
14.1023
14.0616
14.0192
14.4183
14.295
14.2538
14.2342
14.2268
14.2153
14.1991
14.1766
14.1479
14.1142
14.0736
14.0303
14.3749
14.282
14.2618
14.2443
14.2377
14.2263
14.2095
14.1859
14.1561
14.1213
14.0805
14.0364
14.3467
14.2749
14.267
14.252
14.2457
14.2341
14.2165
14.1917
14.1609
14.1252
14.0842
14.0394
14.334
14.275
14.2715
14.2583
14.2517
14.2395
14.221
14.1952
14.1635
14.1272
14.0861
14.0407
14.3333
14.283
14.2764
14.2639
14.2561
14.243
14.2236
14.197
14.1648
14.1282
14.0873
14.0418
14.3404
14.2976
14.2821
14.2688
14.2585
14.2445
14.2245
14.1975
14.1651
14.1287
14.0885
14.0435
14.3513
14.3155
14.2888
14.2715
14.2576
14.2427
14.223
14.1964
14.1648
14.1296
14.0908
14.0473
14.3651
14.3314
14.2964
14.272
14.2538
14.2377
14.2184
14.1932
14.1636
14.131
14.095
14.0544
14.3798
14.3442
14.302
14.2737
14.2521
14.2342
14.2142
14.19
14.1625
14.1323
14.0987
14.0609
)
;

boundaryField
{
    rotor
    {
        type            zeroGradient;
    }
    stator
    {
        type            zeroGradient;
    }
    front
    {
        type            empty;
    }
    back
    {
        type            empty;
    }
}


// ************************************************************************* //
