/*--------------------------------*- C++ -*----------------------------------*\
| =========                 |                                                 |
| \\      /  F ield         | OpenFOAM: The Open Source CFD Toolbox           |
|  \\    /   O peration     | Version:  v1912                                 |
|   \\  /    A nd           | Website:  www.openfoam.com                      |
|    \\/     M anipulation  |                                                 |
\*---------------------------------------------------------------------------*/
FoamFile
{
    version     2.0;
    format      ascii;
    class       surfaceScalarField;
    location    "350";
    object      phi;
}
// * * * * * * * * * * * * * * * * * * * * * * * * * * * * * * * * * * * * * //

dimensions      [0 3 -1 0 0 0 0];
oriented        oriented;


internalField   nonuniform List<scalar> 
5952
(
5.3002e-06
-5.28532e-06
8.92368e-06
-3.6244e-06
1.16324e-05
-2.70769e-06
1.29688e-05
-1.33671e-06
1.27201e-05
2.49687e-07
1.00886e-05
2.63428e-06
4.89556e-06
5.19354e-06
-4.15528e-06
9.05329e-06
-1.86908e-05
1.45355e-05
-3.1895e-05
1.32045e-05
-4.1831e-05
9.93572e-06
7.62125e-06
-4.94524e-05
1.64294e-06
-6.92649e-06
3.72493e-06
-5.70622e-06
3.47596e-06
-2.45752e-06
1.05281e-06
1.08722e-06
-4.31043e-06
5.61387e-06
-1.37759e-05
1.21007e-05
-2.5911e-05
1.7329e-05
-3.56789e-05
1.88217e-05
-3.97046e-05
1.85613e-05
-4.21441e-05
1.56441e-05
-4.4645e-05
1.24366e-05
9.73346e-06
-4.67573e-05
8.21842e-07
-7.74746e-06
-7.37613e-08
-4.81017e-06
-3.17991e-06
6.4924e-07
-9.64685e-06
7.55459e-06
-1.89703e-05
1.49377e-05
-2.68962e-05
2.00271e-05
-3.13606e-05
2.17936e-05
-3.37346e-05
2.1196e-05
-3.4567e-05
1.93939e-05
-3.52393e-05
1.63164e-05
-3.61034e-05
1.33007e-05
1.04353e-05
-3.68054e-05
-2.34179e-06
-5.40507e-06
-6.11041e-06
-1.04122e-06
-1.15316e-05
6.07076e-06
-1.78479e-05
1.38712e-05
-2.28911e-05
1.99811e-05
-2.56687e-05
2.2805e-05
-2.68044e-05
2.29295e-05
-2.71815e-05
2.15733e-05
-2.71506e-05
1.9363e-05
-2.72452e-05
1.64109e-05
-2.74105e-05
1.34659e-05
1.05621e-05
-2.75374e-05
-4.06873e-06
-1.33543e-06
-9.1794e-06
4.06989e-06
-1.40464e-05
1.09382e-05
-1.78171e-05
1.76424e-05
-1.9793e-05
2.19574e-05
-2.02442e-05
2.32566e-05
-1.99617e-05
2.26471e-05
-1.9339e-05
2.09507e-05
-1.86247e-05
1.86486e-05
-1.81582e-05
1.59444e-05
-1.78628e-05
1.31703e-05
1.0373e-05
-1.76737e-05
-4.96477e-06
3.63021e-06
-9.51671e-06
8.62289e-06
-1.28736e-05
1.42959e-05
-1.45312e-05
1.93008e-05
-1.45596e-05
2.19865e-05
-1.36673e-05
2.23648e-05
-1.24185e-05
2.13989e-05
-1.11492e-05
1.96815e-05
-1.00333e-05
1.75329e-05
-9.19322e-06
1.51043e-05
-8.58929e-06
1.25665e-05
9.95681e-06
-8.17326e-06
-4.8418e-06
8.47433e-06
-8.55096e-06
1.23333e-05
-1.04413e-05
1.61874e-05
-1.03681e-05
1.92287e-05
-8.94947e-06
2.05687e-05
-7.00615e-06
2.04223e-05
-5.00703e-06
1.94001e-05
-3.1885e-06
1.78634e-05
-1.65811e-06
1.60027e-05
-4.63135e-07
1.39096e-05
4.31895e-07
1.16715e-05
9.31504e-06
1.07377e-06
-4.65072e-06
1.31264e-05
-7.28247e-06
1.4966e-05
-7.63247e-06
1.65383e-05
-6.05192e-06
1.76488e-05
-3.44061e-06
1.7958e-05
-5.77247e-07
1.75594e-05
2.13823e-06
1.66851e-05
4.52142e-06
1.54805e-05
6.50475e-06
1.40196e-05
8.07835e-06
1.23361e-05
9.28483e-06
1.04651e-05
8.42364e-06
1.01763e-05
-4.06318e-06
1.71907e-05
-5.54146e-06
1.64449e-05
-4.22217e-06
1.52195e-05
-1.24717e-06
1.46743e-05
2.43282e-06
1.42784e-05
6.13391e-06
1.38587e-05
9.51306e-06
1.33063e-05
1.24274e-05
1.25665e-05
1.484e-05
1.16072e-05
1.67673e-05
1.0409e-05
1.82652e-05
8.96729e-06
7.29362e-06
1.93953e-05
-3.75881e-06
2.09494e-05
-2.61309e-06
1.52995e-05
1.1961e-06
1.14105e-05
5.67257e-06
1.01981e-05
1.02735e-05
9.67774e-06
1.45694e-05
9.5631e-06
1.83489e-05
9.527e-06
2.15454e-05
9.37015e-06
2.41668e-05
8.98601e-06
2.62584e-05
8.31746e-06
2.78942e-05
7.33156e-06
6.04361e-06
2.91443e-05
5.17021e-07
2.04329e-05
6.19479e-06
9.62184e-06
1.2234e-05
5.37137e-06
1.77256e-05
4.70666e-06
2.25564e-05
4.84715e-06
2.67004e-05
5.41936e-06
3.01923e-05
6.03539e-06
3.30788e-05
6.48389e-06
3.54179e-05
6.64701e-06
3.72734e-05
6.46213e-06
3.87283e-05
5.87672e-06
4.9225e-06
3.98495e-05
2.02975e-05
1.35049e-07
2.86496e-05
1.2696e-06
3.38569e-05
1.63946e-07
3.79033e-05
6.60281e-07
4.10533e-05
1.69718e-06
4.36384e-05
2.83432e-06
4.58008e-05
3.87316e-06
4.75848e-05
4.7e-06
4.90232e-05
5.20877e-06
5.01491e-05
5.33624e-06
5.10302e-05
4.99576e-06
5.17123e-05
4.24041e-06
-5.48464e-05
5.39379e-06
-5.81862e-05
3.33969e-06
-5.96599e-05
1.47365e-06
-5.93345e-05
-3.25651e-07
-5.73336e-05
-2.00093e-06
-5.35946e-05
-3.73926e-06
-4.79739e-05
-5.62063e-06
-4.04039e-05
-7.56999e-06
-3.07311e-05
-9.67291e-06
-1.91513e-05
-1.15797e-05
-7.53781e-06
-1.16137e-05
-7.53784e-06
-4.81725e-05
6.80903e-06
-4.89886e-05
4.1556e-06
-4.91447e-05
1.6299e-06
-4.86741e-05
-7.96403e-07
-4.74433e-05
-3.23169e-06
-4.53164e-05
-5.86637e-06
-4.21574e-05
-8.77945e-06
-3.76793e-05
-1.20481e-05
-3.16672e-05
-1.56848e-05
-2.38705e-05
-1.93764e-05
-1.3315e-05
-2.21692e-05
-2.08528e-05
-3.74889e-05
7.49248e-06
-3.79766e-05
4.64321e-06
-3.81776e-05
1.83089e-06
-3.79489e-05
-1.02522e-06
-3.71386e-05
-4.04193e-06
-3.56796e-05
-7.32541e-06
-3.34584e-05
-1.10005e-05
-3.03529e-05
-1.51534e-05
-2.6274e-05
-1.97637e-05
-2.07149e-05
-2.49355e-05
-1.27218e-05
-3.01621e-05
-3.35746e-05
-2.7663e-05
7.618e-06
-2.77141e-05
4.69425e-06
-2.76196e-05
1.73631e-06
-2.72991e-05
-1.34585e-06
-2.66823e-05
-4.65873e-06
-2.57039e-05
-8.30386e-06
-2.42784e-05
-1.2426e-05
-2.22842e-05
-1.71475e-05
-1.9519e-05
-2.25289e-05
-1.55069e-05
-2.89475e-05
-9.468e-06
-3.62009e-05
-4.30425e-05
-1.75797e-05
7.52392e-06
-1.75158e-05
4.6302e-06
-1.74206e-05
1.64106e-06
-1.72437e-05
-1.52281e-06
-1.69441e-05
-4.95841e-06
-1.64744e-05
-8.77361e-06
-1.57771e-05
-1.31232e-05
-1.47878e-05
-1.81367e-05
-1.33044e-05
-2.40122e-05
-1.11234e-05
-3.11285e-05
-7.38608e-06
-3.99381e-05
-5.04285e-05
-7.91347e-06
7.26413e-06
-7.76154e-06
4.47818e-06
-7.67567e-06
1.55517e-06
-7.6262e-06
-1.57234e-06
-7.59264e-06
-4.99197e-06
-7.55466e-06
-8.81157e-06
-7.50735e-06
-1.31704e-05
-7.41052e-06
-1.82334e-05
-7.15681e-06
-2.4266e-05
-6.56893e-06
-3.17163e-05
-4.85445e-06
-4.16526e-05
-5.52831e-05
1.50166e-06
6.83623e-06
1.75412e-06
4.22576e-06
1.85838e-06
1.45092e-06
1.82639e-06
-1.54031e-06
1.65586e-06
-4.8214e-06
1.33356e-06
-8.48918e-06
8.33483e-07
-1.26703e-05
1.41094e-07
-1.75411e-05
-7.20328e-07
-2.34045e-05
-1.63741e-06
-3.07995e-05
-2.16968e-06
-4.11205e-05
-5.74528e-05
1.07996e-05
6.21292e-06
1.11897e-05
3.83571e-06
1.13654e-05
1.27526e-06
1.13252e-05
-1.50006e-06
1.10475e-05
-4.54363e-06
1.04899e-05
-7.93143e-06
9.58133e-06
-1.17617e-05
8.23388e-06
-1.61935e-05
6.35477e-06
-2.15256e-05
3.91861e-06
-2.83633e-05
1.28572e-06
-3.84876e-05
-5.61672e-05
2.02161e-05
5.39218e-06
2.07637e-05
3.28813e-06
2.10549e-05
9.84153e-07
2.10796e-05
-1.52471e-06
2.08015e-05
-4.26549e-06
2.01541e-05
-7.28394e-06
1.90182e-05
-1.06257e-05
1.72232e-05
-1.43985e-05
1.45296e-05
-1.88318e-05
1.06793e-05
-2.4513e-05
5.74933e-06
-3.35577e-05
-5.04178e-05
3.00812e-05
4.4553e-06
3.07423e-05
2.62705e-06
3.11468e-05
5.79643e-07
3.12813e-05
-1.65918e-06
3.10989e-05
-4.08291e-06
3.05148e-05
-6.69975e-06
2.93674e-05
-9.47822e-06
2.74104e-05
-1.24412e-05
2.424e-05
-1.56613e-05
1.93535e-05
-1.96264e-05
1.19303e-05
-2.61343e-05
-3.84871e-05
4.07232e-05
3.58172e-06
4.13786e-05
1.97167e-06
4.18382e-05
1.20135e-07
4.20874e-05
-1.90828e-06
4.20726e-05
-4.06803e-06
4.1699e-05
-6.326e-06
4.07778e-05
-8.55682e-06
3.90194e-05
-1.06827e-05
3.58758e-05
-1.25174e-05
3.06128e-05
-1.4363e-05
2.07218e-05
-1.6243e-05
-1.7765e-05
5.23004e-05
2.99362e-06
5.28017e-05
1.47045e-06
5.32396e-05
-3.17701e-07
5.35939e-05
-2.2625e-06
5.38023e-05
-4.27635e-06
5.37628e-05
-6.28636e-06
5.32852e-05
-8.07902e-06
5.21045e-05
-9.50178e-06
4.96946e-05
-1.01072e-05
4.51066e-05
-9.77494e-06
3.4693e-05
-5.82895e-06
1.69282e-05
5.29297e-06
-5.2924e-06
8.91808e-06
-3.62606e-06
1.16287e-05
-2.71051e-06
1.29685e-05
-1.33998e-06
1.27237e-05
2.44592e-07
1.01008e-05
2.6257e-06
4.91188e-06
5.18858e-06
-4.11903e-06
9.0335e-06
-1.86523e-05
1.4533e-05
-3.1867e-05
1.32153e-05
-4.18079e-05
9.94075e-06
7.62759e-06
-4.94354e-05
1.64032e-06
-6.93212e-06
3.72892e-06
-5.7145e-06
3.4853e-06
-2.46666e-06
1.06934e-06
1.07619e-06
-4.28193e-06
5.59581e-06
-1.37339e-05
1.20783e-05
-2.58701e-05
1.73248e-05
-3.56587e-05
1.88225e-05
-3.96944e-05
1.85687e-05
-4.21344e-05
1.56554e-05
-4.46378e-05
1.24442e-05
9.74062e-06
-4.67509e-05
8.26375e-07
-7.75746e-06
-6.13495e-08
-4.8265e-06
-3.1566e-06
6.28805e-07
-9.60991e-06
7.52954e-06
-1.89322e-05
1.49182e-05
-2.68771e-05
2.00234e-05
-3.13514e-05
2.17991e-05
-3.37318e-05
2.1203e-05
-3.45661e-05
1.94029e-05
-3.52369e-05
1.63261e-05
-3.61013e-05
1.33084e-05
1.0442e-05
-3.68029e-05
-2.33448e-06
-5.42212e-06
-6.09327e-06
-1.06732e-06
-1.15079e-05
6.04382e-06
-1.78286e-05
1.38503e-05
-2.28833e-05
1.9973e-05
-2.56683e-05
2.28085e-05
-2.68058e-05
2.29366e-05
-2.71838e-05
2.15811e-05
-2.71528e-05
1.93717e-05
-2.72462e-05
1.64195e-05
-2.74111e-05
1.3473e-05
1.05682e-05
-2.75375e-05
-4.0629e-06
-1.35812e-06
-9.17175e-06
4.04248e-06
-1.40421e-05
1.09145e-05
-1.7819e-05
1.76276e-05
-1.97999e-05
2.19545e-05
-2.02518e-05
2.32604e-05
-1.9968e-05
2.26532e-05
-1.93447e-05
2.09576e-05
-1.86288e-05
1.86559e-05
-1.81609e-05
1.59513e-05
-1.78643e-05
1.31764e-05
1.0378e-05
-1.76745e-05
-4.96342e-06
3.60841e-06
-9.51943e-06
8.59919e-06
-1.28811e-05
1.42774e-05
-1.45427e-05
1.92903e-05
-1.4572e-05
2.19842e-05
-1.36775e-05
2.2367e-05
-1.24271e-05
2.14027e-05
-1.11554e-05
1.96865e-05
-1.00379e-05
1.75382e-05
-9.19603e-06
1.51097e-05
-8.59114e-06
1.25712e-05
9.96104e-06
-8.17402e-06
-4.8466e-06
8.45647e-06
-8.56053e-06
1.23149e-05
-1.04549e-05
1.61726e-05
-1.0383e-05
1.92196e-05
-8.96287e-06
2.05652e-05
-7.01729e-06
2.04221e-05
-5.0156e-06
1.94018e-05
-3.19497e-06
1.78662e-05
-1.66254e-06
1.60061e-05
-4.66097e-07
1.39133e-05
4.30173e-07
1.16751e-05
9.31832e-06
1.07285e-06
-4.65773e-06
1.31162e-05
-7.29505e-06
1.49529e-05
-7.64765e-06
1.65265e-05
-6.06718e-06
1.764e-05
-3.45403e-06
1.79528e-05
-5.88213e-07
1.75569e-05
2.12965e-06
1.66845e-05
4.51501e-06
1.54813e-05
6.50022e-06
1.40212e-05
8.07533e-06
1.23384e-05
9.28294e-06
1.04676e-05
8.42607e-06
1.01752e-05
-4.07128e-06
1.71882e-05
-5.55367e-06
1.64365e-05
-4.23628e-06
1.52092e-05
-1.26111e-06
1.46654e-05
2.42046e-06
1.42718e-05
6.12371e-06
1.38542e-05
9.50498e-06
1.33036e-05
1.24213e-05
1.25653e-05
1.48355e-05
1.16072e-05
1.67643e-05
1.04098e-05
1.82633e-05
8.96869e-06
7.29523e-06
1.93941e-05
-3.76422e-06
2.09538e-05
-2.62091e-06
1.52934e-05
1.1866e-06
1.14027e-05
5.66258e-06
1.01897e-05
1.02644e-05
9.67039e-06
1.45616e-05
9.55733e-06
1.83426e-05
9.52295e-06
2.15405e-05
9.36767e-06
2.41632e-05
8.9848e-06
2.62559e-05
8.31727e-06
2.78925e-05
7.3321e-06
6.04458e-06
2.91432e-05
5.17121e-07
2.04374e-05
6.19273e-06
9.61865e-06
1.22303e-05
5.36486e-06
1.77214e-05
4.69905e-06
2.25522e-05
4.83995e-06
2.66965e-05
5.41334e-06
3.01888e-05
6.03089e-06
3.30759e-05
6.48085e-06
3.54157e-05
6.64524e-06
3.72717e-05
6.46139e-06
3.87271e-05
5.87677e-06
4.92311e-06
3.98487e-05
2.03012e-05
1.36817e-07
2.8653e-05
1.2667e-06
3.38593e-05
1.59274e-07
3.79042e-05
6.54202e-07
4.10532e-05
1.69109e-06
4.36377e-05
2.82896e-06
4.57998e-05
3.86892e-06
4.75837e-05
4.69702e-06
4.90221e-05
5.20696e-06
5.01482e-05
5.33541e-06
5.10293e-05
4.99573e-06
5.17115e-05
4.24094e-06
-5.48327e-05
5.39734e-06
-5.81762e-05
3.34346e-06
-5.9652e-05
1.47602e-06
-5.93287e-05
-3.23535e-07
-5.73289e-05
-1.99959e-06
-5.35913e-05
-3.73796e-06
-4.79713e-05
-5.6199e-06
-4.04019e-05
-7.56933e-06
-3.07294e-05
-9.6726e-06
-1.91499e-05
-1.15794e-05
-7.53661e-06
-1.16135e-05
-7.53663e-06
-4.81678e-05
6.81423e-06
-4.89844e-05
4.16e-06
-4.91415e-05
1.63315e-06
-4.86713e-05
-7.93881e-07
-4.74411e-05
-3.2297e-06
-4.53144e-05
-5.86482e-06
-4.2156e-05
-8.77829e-06
-3.76781e-05
-1.20472e-05
-3.16664e-05
-1.56842e-05
-2.38699e-05
-1.9376e-05
-1.33148e-05
-2.21687e-05
-2.08514e-05
-3.74866e-05
7.49783e-06
-3.79744e-05
4.64765e-06
-3.81757e-05
1.83437e-06
-3.79472e-05
-1.02249e-06
-3.71372e-05
-4.03983e-06
-3.56784e-05
-7.32378e-06
-3.34574e-05
-1.09993e-05
-3.03521e-05
-1.51524e-05
-2.62734e-05
-1.97629e-05
-2.07147e-05
-2.49347e-05
-1.2722e-05
-3.01613e-05
-3.35734e-05
-2.76628e-05
7.62294e-06
-2.77136e-05
4.69822e-06
-2.76188e-05
1.7394e-06
-2.7298e-05
-1.34338e-06
-2.66812e-05
-4.65677e-06
-2.57028e-05
-8.30225e-06
-2.42774e-05
-1.24247e-05
-2.22835e-05
-1.71463e-05
-1.95184e-05
-2.2528e-05
-1.55065e-05
-2.89467e-05
-9.46783e-06
-3.62e-05
-4.30412e-05
-1.75798e-05
7.52818e-06
-1.75154e-05
4.63355e-06
-1.74199e-05
1.6438e-06
-1.72429e-05
-1.52062e-06
-1.69432e-05
-4.95656e-06
-1.64735e-05
-8.77206e-06
-1.57763e-05
-1.31218e-05
-1.47872e-05
-1.81355e-05
-1.3304e-05
-2.40111e-05
-1.11232e-05
-3.11275e-05
-7.38624e-06
-3.99372e-05
-5.04275e-05
-7.91371e-06
7.26758e-06
-7.76121e-06
4.48109e-06
-7.67514e-06
1.55751e-06
-7.62544e-06
-1.57033e-06
-7.59189e-06
-4.99027e-06
-7.55388e-06
-8.81004e-06
-7.50676e-06
-1.31691e-05
-7.40999e-06
-1.82321e-05
-7.15645e-06
-2.42648e-05
-6.56888e-06
-3.17153e-05
-4.85444e-06
-4.16516e-05
-5.52823e-05
1.5014e-06
6.83909e-06
1.75425e-06
4.22817e-06
1.85879e-06
1.45299e-06
1.82692e-06
-1.53851e-06
1.65644e-06
-4.81979e-06
1.33407e-06
-8.48769e-06
8.33923e-07
-1.26688e-05
1.41399e-07
-1.75397e-05
-7.20252e-07
-2.34032e-05
-1.63733e-06
-3.07982e-05
-2.17005e-06
-4.11196e-05
-5.74523e-05
1.07992e-05
6.21515e-06
1.11897e-05
3.8377e-06
1.13656e-05
1.27705e-06
1.13255e-05
-1.49842e-06
1.10479e-05
-4.54208e-06
1.04902e-05
-7.92993e-06
9.58155e-06
-1.17602e-05
8.23396e-06
-1.6192e-05
6.35487e-06
-2.1524e-05
3.91834e-06
-2.8362e-05
1.28559e-06
-3.84866e-05
-5.61669e-05
2.02155e-05
5.39384e-06
2.07635e-05
3.28973e-06
2.10549e-05
9.85714e-07
2.10797e-05
-1.52319e-06
2.08016e-05
-4.26397e-06
2.01542e-05
-7.28241e-06
1.90182e-05
-1.06241e-05
1.72232e-05
-1.43968e-05
1.45294e-05
-1.88302e-05
1.06791e-05
-2.45114e-05
5.74894e-06
-3.35567e-05
-5.04178e-05
3.00805e-05
4.45648e-06
3.0742e-05
2.62836e-06
3.11467e-05
5.81023e-07
3.12813e-05
-1.65773e-06
3.10988e-05
-4.0814e-06
3.05146e-05
-6.69815e-06
2.93673e-05
-9.47657e-06
2.74101e-05
-1.24395e-05
2.42397e-05
-1.56595e-05
1.93532e-05
-1.96247e-05
1.19301e-05
-2.61333e-05
-3.84871e-05
4.07226e-05
3.58264e-06
4.13782e-05
1.97284e-06
4.18379e-05
1.21445e-07
4.20871e-05
-1.90683e-06
4.20723e-05
-4.06648e-06
4.16986e-05
-6.32434e-06
4.07774e-05
-8.55511e-06
3.90191e-05
-1.06809e-05
3.58754e-05
-1.25156e-05
3.06124e-05
-1.43614e-05
2.07217e-05
-1.62417e-05
-1.77654e-05
5.22998e-05
2.99454e-06
5.2801e-05
1.47163e-06
5.32389e-05
-3.16332e-07
5.35932e-05
-2.26101e-06
5.38016e-05
-4.27475e-06
5.37621e-05
-6.28468e-06
5.32845e-05
-8.07728e-06
5.21039e-05
-9.5e-06
4.96941e-05
-1.01055e-05
4.51064e-05
-9.77313e-06
3.46926e-05
-5.82818e-06
1.69281e-05
5.29119e-06
-5.28943e-06
8.91398e-06
-3.62293e-06
1.16229e-05
-2.70758e-06
1.29612e-05
-1.33763e-06
1.27146e-05
2.48202e-07
1.00865e-05
2.63227e-06
4.89663e-06
5.19128e-06
-4.14654e-06
9.04666e-06
-1.86778e-05
1.45314e-05
-3.18818e-05
1.32047e-05
-4.18175e-05
9.93541e-06
7.62177e-06
-4.94394e-05
1.63743e-06
-6.92532e-06
3.72034e-06
-5.70532e-06
3.47185e-06
-2.45792e-06
1.0511e-06
1.08435e-06
-4.30749e-06
5.60787e-06
-1.37668e-05
1.20927e-05
-2.58982e-05
1.73232e-05
-3.56683e-05
1.88173e-05
-3.96956e-05
1.85589e-05
-4.21344e-05
1.56436e-05
-4.46353e-05
1.24363e-05
9.73377e-06
-4.67475e-05
8.21697e-07
-7.7464e-06
-7.23955e-08
-4.8109e-06
-3.17581e-06
6.45894e-07
-9.63905e-06
7.54795e-06
-1.89606e-05
1.49297e-05
-2.68876e-05
2.00202e-05
-3.13529e-05
2.17887e-05
-3.37275e-05
2.11922e-05
-3.45602e-05
1.93916e-05
-3.52318e-05
1.63153e-05
-3.60958e-05
1.33002e-05
1.04354e-05
-3.67976e-05
-2.33987e-06
-5.40606e-06
-6.10631e-06
-1.0443e-06
-1.15258e-05
6.06565e-06
-1.78417e-05
1.38642e-05
-2.28853e-05
1.99736e-05
-2.56634e-05
2.27987e-05
-2.6799e-05
2.29246e-05
-2.71759e-05
2.15694e-05
-2.71448e-05
1.93604e-05
-2.72389e-05
1.64096e-05
-2.74041e-05
1.34653e-05
1.05621e-05
-2.75309e-05
-4.06781e-06
-1.33757e-06
-9.17788e-06
4.06624e-06
-1.40446e-05
1.09328e-05
-1.78149e-05
1.76351e-05
-1.97907e-05
2.19499e-05
-2.02415e-05
2.32502e-05
-1.99584e-05
2.26418e-05
-1.93353e-05
2.09468e-05
-1.86206e-05
1.86459e-05
-1.81536e-05
1.59428e-05
-1.78579e-05
1.31695e-05
1.03729e-05
-1.76687e-05
-4.96533e-06
3.62902e-06
-9.51765e-06
8.61957e-06
-1.28745e-05
1.42906e-05
-1.45318e-05
1.92934e-05
-1.45597e-05
2.19789e-05
-1.36667e-05
2.23579e-05
-1.24173e-05
2.13933e-05
-1.11473e-05
1.96772e-05
-1.00309e-05
1.75299e-05
-9.19029e-06
1.51024e-05
-8.58596e-06
1.25655e-05
9.95659e-06
-8.16966e-06
-4.84324e-06
8.47458e-06
-8.55327e-06
1.23309e-05
-1.04438e-05
1.61823e-05
-1.03704e-05
1.92213e-05
-8.95135e-06
2.05608e-05
-7.0075e-06
2.04151e-05
-5.00777e-06
1.93942e-05
-3.18855e-06
1.78588e-05
-1.65749e-06
1.59993e-05
-4.61881e-07
1.39073e-05
4.33647e-07
1.16702e-05
9.31459e-06
1.07591e-06
-4.65284e-06
1.31285e-05
-7.2852e-06
1.49645e-05
-7.63539e-06
1.65334e-05
-6.05503e-06
1.76418e-05
-3.4438e-06
1.79503e-05
-5.80145e-07
1.75522e-05
2.13585e-06
1.66788e-05
4.51974e-06
1.54755e-05
6.5038e-06
1.40157e-05
8.07809e-06
1.23334e-05
9.28516e-06
1.04634e-05
8.42288e-06
1.01771e-05
-4.06486e-06
1.71945e-05
-5.54352e-06
1.64438e-05
-4.22463e-06
1.5215e-05
-1.25018e-06
1.46678e-05
2.42951e-06
1.42711e-05
6.13066e-06
1.38515e-05
9.51014e-06
1.32998e-05
1.2425e-05
1.2561e-05
1.48382e-05
1.16029e-05
1.67662e-05
1.04058e-05
1.82646e-05
8.96525e-06
7.29258e-06
1.93951e-05
-3.7589e-06
2.09538e-05
-2.61316e-06
1.52983e-05
1.19556e-06
1.14066e-05
5.67139e-06
1.01922e-05
1.02719e-05
9.67082e-06
1.45675e-05
9.55605e-06
1.8347e-05
9.52051e-06
2.15437e-05
9.36458e-06
2.41654e-05
8.98155e-06
2.62573e-05
8.31417e-06
2.78934e-05
7.3294e-06
6.04249e-06
2.91436e-05
5.18882e-07
2.04355e-05
6.19704e-06
9.62032e-06
1.22361e-05
5.36764e-06
1.77273e-05
4.70105e-06
2.25576e-05
4.84066e-06
2.6701e-05
5.41274e-06
3.01924e-05
6.02928e-06
3.30786e-05
6.47862e-06
3.54175e-05
6.64282e-06
3.72728e-05
6.45908e-06
3.87276e-05
5.8748e-06
4.92162e-06
3.98487e-05
2.03009e-05
1.34405e-07
2.86543e-05
1.26692e-06
3.38616e-05
1.60206e-07
3.79074e-05
6.55186e-07
4.10566e-05
1.69132e-06
4.36409e-05
2.82834e-06
4.58025e-05
3.8676e-06
4.75859e-05
4.69528e-06
4.90237e-05
5.20513e-06
5.01491e-05
5.33376e-06
5.10296e-05
4.9944e-06
5.17113e-05
4.24006e-06
-5.48338e-05
5.39416e-06
-5.81744e-05
3.34044e-06
-5.96489e-05
1.47433e-06
-5.93243e-05
-3.24853e-07
-5.73243e-05
-2.00016e-06
-5.35863e-05
-3.73829e-06
-4.79668e-05
-5.61965e-06
-4.0398e-05
-7.56882e-06
-3.07265e-05
-9.67164e-06
-1.91483e-05
-1.15783e-05
-7.53634e-06
-1.16123e-05
-7.53643e-06
-4.81631e-05
6.80961e-06
-4.89793e-05
4.15647e-06
-4.91359e-05
1.6309e-06
-4.86657e-05
-7.95259e-07
-4.74356e-05
-3.23034e-06
-4.53093e-05
-5.8648e-06
-4.21513e-05
-8.77764e-06
-3.76741e-05
-1.2046e-05
-3.16632e-05
-1.56825e-05
-2.38677e-05
-1.93738e-05
-1.33137e-05
-2.21665e-05
-2.08501e-05
-3.74811e-05
7.49299e-06
-3.79689e-05
4.64409e-06
-3.81702e-05
1.83207e-06
-3.79419e-05
-1.0237e-06
-3.71322e-05
-4.04007e-06
-3.56739e-05
-7.32321e-06
-3.34536e-05
-1.0998e-05
-3.03489e-05
-1.51506e-05
-2.62708e-05
-1.97605e-05
-2.07126e-05
-2.4932e-05
-1.27206e-05
-3.01584e-05
-3.35706e-05
-2.76565e-05
7.61853e-06
-2.77078e-05
4.69525e-06
-2.76136e-05
1.73774e-06
-2.72934e-05
-1.34398e-06
-2.66771e-05
-4.65643e-06
-2.56993e-05
-8.30113e-06
-2.42744e-05
-1.24228e-05
-2.2281e-05
-1.7144e-05
-1.95164e-05
-2.2525e-05
-1.5505e-05
-2.89433e-05
-9.46702e-06
-3.61963e-05
-4.30376e-05
-1.75747e-05
7.52445e-06
-1.75108e-05
4.63128e-06
-1.74158e-05
1.64266e-06
-1.72391e-05
-1.52069e-06
-1.69399e-05
-4.95578e-06
-1.64705e-05
-8.77048e-06
-1.57738e-05
-1.31196e-05
-1.47851e-05
-1.81326e-05
-1.33024e-05
-2.40077e-05
-1.11221e-05
-3.11237e-05
-7.38551e-06
-3.99329e-05
-5.04231e-05
-7.90971e-06
7.26459e-06
-7.75775e-06
4.47927e-06
-7.67194e-06
1.55685e-06
-7.62262e-06
-1.57008e-06
-7.58929e-06
-4.98914e-06
-7.55161e-06
-8.80818e-06
-7.50467e-06
-1.31665e-05
-7.4083e-06
-1.82289e-05
-7.15516e-06
-2.4261e-05
-6.56788e-06
-3.1711e-05
-4.85396e-06
-4.1647e-05
-5.52773e-05
1.50404e-06
6.83653e-06
1.75665e-06
4.22676e-06
1.86094e-06
1.45257e-06
1.82892e-06
-1.53802e-06
1.65826e-06
-4.8185e-06
1.33576e-06
-8.48566e-06
8.35429e-07
-1.26661e-05
1.42674e-07
-1.75363e-05
-7.1916e-07
-2.33991e-05
-1.63675e-06
-3.07938e-05
-2.16945e-06
-4.11147e-05
-5.74468e-05
1.08008e-05
6.21299e-06
1.11911e-05
3.83655e-06
1.13669e-05
1.27682e-06
1.13267e-05
-1.49782e-06
1.1049e-05
-4.54073e-06
1.04912e-05
-7.92787e-06
9.58251e-06
-1.17574e-05
8.23485e-06
-1.61885e-05
6.35542e-06
-2.15201e-05
3.91891e-06
-2.83573e-05
1.28576e-06
-3.84816e-05
-5.61613e-05
2.02162e-05
5.39204e-06
2.0764e-05
3.28883e-06
2.10553e-05
9.85632e-07
2.108e-05
-1.5225e-06
2.0802e-05
-4.2626e-06
2.01545e-05
-7.28037e-06
1.90186e-05
-1.06214e-05
1.72235e-05
-1.43935e-05
1.45297e-05
-1.88261e-05
1.06793e-05
-2.45069e-05
5.74909e-06
-3.35517e-05
-5.04122e-05
3.00806e-05
4.45512e-06
3.07418e-05
2.62773e-06
3.11464e-05
5.81127e-07
3.12809e-05
-1.65695e-06
3.10984e-05
-4.08001e-06
3.05143e-05
-6.69617e-06
2.93669e-05
-9.47397e-06
2.74099e-05
-1.24362e-05
2.42395e-05
-1.56557e-05
1.9353e-05
-1.96204e-05
1.19299e-05
-2.61283e-05
-3.84821e-05
4.07222e-05
3.58174e-06
4.13775e-05
1.97252e-06
4.1837e-05
1.21757e-07
4.20861e-05
-1.90594e-06
4.20712e-05
-4.06505e-06
4.16976e-05
-6.32238e-06
4.07764e-05
-8.55258e-06
3.90181e-05
-1.06778e-05
3.58746e-05
-1.25119e-05
3.06118e-05
-1.43572e-05
2.0721e-05
-1.62373e-05
-1.77606e-05
5.2299e-05
2.99408e-06
5.28e-05
1.47165e-06
5.32377e-05
-3.15811e-07
5.35918e-05
-2.25997e-06
5.38001e-05
-4.27323e-06
5.37605e-05
-6.28265e-06
5.32828e-05
-8.07473e-06
5.21021e-05
-9.49685e-06
4.96924e-05
-1.01019e-05
4.51048e-05
-9.76952e-06
3.46919e-05
-5.82399e-06
1.69315e-05
5.29322e-06
-5.2926e-06
8.91849e-06
-3.6262e-06
1.16292e-05
-2.71055e-06
1.2969e-05
-1.33996e-06
1.27243e-05
2.44605e-07
1.01012e-05
2.62586e-06
4.91141e-06
5.18951e-06
-4.12161e-06
9.03562e-06
-1.86568e-05
1.45349e-05
-3.18721e-05
1.32159e-05
-4.18134e-05
9.94121e-06
7.6278e-06
-4.94411e-05
1.64061e-06
-6.93256e-06
3.72947e-06
-5.71489e-06
3.48594e-06
-2.46675e-06
1.06975e-06
1.07648e-06
-4.28237e-06
5.59672e-06
-1.3736e-05
1.20801e-05
-2.58734e-05
1.7327e-05
-3.56622e-05
1.88248e-05
-3.96977e-05
1.85704e-05
-4.21381e-05
1.56564e-05
-4.46418e-05
1.24449e-05
9.74097e-06
-4.6755e-05
8.26907e-07
-7.75843e-06
-6.03718e-08
-4.82732e-06
-3.15543e-06
6.28553e-07
-9.60904e-06
7.53015e-06
-1.89323e-05
1.492e-05
-2.68785e-05
2.00265e-05
-3.13537e-05
2.18022e-05
-3.37344e-05
2.12057e-05
-3.45689e-05
1.94048e-05
-3.524e-05
1.63274e-05
-3.61046e-05
1.33093e-05
1.04425e-05
-3.68062e-05
-2.33374e-06
-5.42379e-06
-6.09186e-06
-1.06879e-06
-1.15065e-05
6.04357e-06
-1.78281e-05
1.38519e-05
-2.28844e-05
1.99764e-05
-2.56701e-05
2.28125e-05
-2.68081e-05
2.29401e-05
-2.71862e-05
2.15839e-05
-2.71553e-05
1.93737e-05
-2.72488e-05
1.64209e-05
-2.74138e-05
1.34739e-05
1.05687e-05
-2.75401e-05
-4.06215e-06
-1.36049e-06
-9.1708e-06
4.04089e-06
-1.40417e-05
1.09148e-05
-1.78196e-05
1.76302e-05
-1.98014e-05
2.19586e-05
-2.02535e-05
2.32647e-05
-1.99698e-05
2.26568e-05
-1.93466e-05
2.09605e-05
-1.86307e-05
1.86579e-05
-1.81629e-05
1.59527e-05
-1.78662e-05
1.31773e-05
1.03784e-05
-1.76763e-05
-4.96296e-06
3.60585e-06
-9.51929e-06
8.59794e-06
-1.28815e-05
1.42784e-05
-1.45438e-05
1.92936e-05
-1.45732e-05
2.19886e-05
-1.36788e-05
2.23713e-05
-1.24284e-05
2.14064e-05
-1.11567e-05
1.96894e-05
-1.00392e-05
1.75402e-05
-9.19725e-06
1.51111e-05
-8.59225e-06
1.2572e-05
9.96136e-06
-8.17505e-06
-4.84675e-06
8.45415e-06
-8.56107e-06
1.23142e-05
-1.04559e-05
1.6174e-05
-1.03842e-05
1.9223e-05
-8.96385e-06
2.05695e-05
-7.01805e-06
2.04262e-05
-5.01622e-06
1.94054e-05
-3.19552e-06
1.7869e-05
-1.66303e-06
1.60081e-05
-4.66489e-07
1.39146e-05
4.29899e-07
1.16758e-05
9.31852e-06
1.07269e-06
-4.65812e-06
1.31144e-05
-7.296e-06
1.49528e-05
-7.64887e-06
1.65282e-05
-6.06819e-06
1.76432e-05
-3.45463e-06
1.79567e-05
-5.88455e-07
1.75607e-05
2.12965e-06
1.66878e-05
4.51517e-06
1.54839e-05
6.5005e-06
1.40231e-05
8.07573e-06
1.23396e-05
9.28347e-06
1.04681e-05
8.42617e-06
1.01759e-05
-4.07208e-06
1.71872e-05
-5.55485e-06
1.64368e-05
-4.23745e-06
1.5211e-05
-1.26195e-06
1.46683e-05
2.42006e-06
1.42752e-05
6.1237e-06
1.38576e-05
9.50528e-06
1.33067e-05
1.24218e-05
1.25677e-05
1.48363e-05
1.16089e-05
1.67652e-05
1.04108e-05
1.82643e-05
8.9691e-06
7.2952e-06
1.93953e-05
-3.76478e-06
2.09535e-05
-2.62179e-06
1.5294e-05
1.1856e-06
1.14046e-05
5.6617e-06
1.01925e-05
1.02638e-05
9.67355e-06
1.45614e-05
9.56039e-06
1.83427e-05
9.52561e-06
2.1541e-05
9.36974e-06
2.41639e-05
8.9862e-06
2.62568e-05
8.31801e-06
2.78937e-05
7.3323e-06
6.04436e-06
2.91446e-05
5.16983e-07
2.04373e-05
6.19191e-06
9.62e-06
1.2229e-05
5.36729e-06
1.77199e-05
4.70197e-06
2.25508e-05
4.84299e-06
2.66954e-05
5.41614e-06
3.01881e-05
6.03319e-06
3.30756e-05
6.48253e-06
3.54158e-05
6.64626e-06
3.72721e-05
6.46176e-06
3.87279e-05
5.87663e-06
4.92259e-06
3.98498e-05
2.02995e-05
1.38371e-07
2.86503e-05
1.26906e-06
3.38561e-05
1.62227e-07
3.79009e-05
6.57299e-07
4.105e-05
1.69395e-06
4.36349e-05
2.83137e-06
4.57974e-05
3.87074e-06
4.75819e-05
4.69816e-06
4.90209e-05
5.20742e-06
5.01475e-05
5.33522e-06
5.10292e-05
4.99506e-06
5.17119e-05
4.23994e-06
-5.48385e-05
5.39738e-06
-5.81818e-05
3.34333e-06
-5.96574e-05
1.47578e-06
-5.93337e-05
-3.23858e-07
-5.73336e-05
-1.99998e-06
-5.35955e-05
-3.73843e-06
-4.7975e-05
-5.62037e-06
-4.04051e-05
-7.56984e-06
-3.0732e-05
-9.67314e-06
-1.9152e-05
-1.158e-05
-7.53798e-06
-1.16142e-05
-7.538e-06
-4.81719e-05
6.81429e-06
-4.89885e-05
4.15983e-06
-4.91454e-05
1.63278e-06
-4.8675e-05
-7.94395e-07
-4.74446e-05
-3.23037e-06
-4.53175e-05
-5.86561e-06
-4.21587e-05
-8.77918e-06
-3.76803e-05
-1.20482e-05
-3.16681e-05
-1.56853e-05
-2.38711e-05
-1.93771e-05
-1.33154e-05
-2.21699e-05
-2.08534e-05
-3.749e-05
7.49791e-06
-3.79777e-05
4.64741e-06
-3.81788e-05
1.83386e-06
-3.79502e-05
-1.02323e-06
-3.71398e-05
-4.04077e-06
-3.56806e-05
-7.32491e-06
-3.34593e-05
-1.10005e-05
-3.03536e-05
-1.51538e-05
-2.62745e-05
-1.97644e-05
-2.07152e-05
-2.49363e-05
-1.27221e-05
-3.0163e-05
-3.35754e-05
-2.76654e-05
7.62296e-06
-2.7716e-05
4.69789e-06
-2.76211e-05
1.73876e-06
-2.73002e-05
-1.3443e-06
-2.66832e-05
-4.65794e-06
-2.57045e-05
-8.30365e-06
-2.42788e-05
-1.24263e-05
-2.22845e-05
-1.7148e-05
-1.95192e-05
-2.25297e-05
-1.5507e-05
-2.89485e-05
-9.46807e-06
-3.62019e-05
-4.30436e-05
-1.75816e-05
7.52815e-06
-1.75171e-05
4.63314e-06
-1.74215e-05
1.64305e-06
-1.72443e-05
-1.52168e-06
-1.69444e-05
-4.9579e-06
-1.64745e-05
-8.77365e-06
-1.57771e-05
-1.31237e-05
-1.47877e-05
-1.81375e-05
-1.33042e-05
-2.40131e-05
-1.11232e-05
-3.11296e-05
-7.38607e-06
-3.99392e-05
-5.04296e-05
-7.91465e-06
7.26747e-06
-7.76206e-06
4.48059e-06
-7.67589e-06
1.55668e-06
-7.6261e-06
-1.57149e-06
-7.59244e-06
-4.99171e-06
-7.55431e-06
-8.81174e-06
-7.50706e-06
-1.3171e-05
-7.41013e-06
-1.82342e-05
-7.15644e-06
-2.4267e-05
-6.56871e-06
-3.17175e-05
-4.85426e-06
-4.16536e-05
-5.52842e-05
1.50134e-06
6.83888e-06
1.75427e-06
4.2276e-06
1.85887e-06
1.45209e-06
1.82705e-06
-1.53971e-06
1.65661e-06
-4.82127e-06
1.33428e-06
-8.48943e-06
8.3418e-07
-1.26708e-05
1.41718e-07
-1.75418e-05
-7.19852e-07
-2.34054e-05
-1.63687e-06
-3.08003e-05
-2.16962e-06
-4.11215e-05
-5.74537e-05
1.07999e-05
6.21486e-06
1.11905e-05
3.83708e-06
1.13664e-05
1.27613e-06
1.13264e-05
-1.49963e-06
1.10487e-05
-4.54355e-06
1.04909e-05
-7.93164e-06
9.58229e-06
-1.17621e-05
8.23468e-06
-1.61941e-05
6.35556e-06
-2.15262e-05
3.91899e-06
-2.83641e-05
1.28608e-06
-3.84883e-05
-5.61678e-05
2.02168e-05
5.39345e-06
2.07648e-05
3.28905e-06
2.10562e-05
9.84774e-07
2.1081e-05
-1.52438e-06
2.08029e-05
-4.26538e-06
2.01554e-05
-7.28403e-06
1.90194e-05
-1.06259e-05
1.72242e-05
-1.43988e-05
1.45303e-05
-1.88323e-05
1.06799e-05
-2.45134e-05
5.74956e-06
-3.3558e-05
-5.0418e-05
3.00821e-05
4.45596e-06
3.07436e-05
2.62759e-06
3.11483e-05
5.80043e-07
3.12829e-05
-1.65891e-06
3.11004e-05
-4.08276e-06
3.05162e-05
-6.69967e-06
2.93686e-05
-9.47825e-06
2.74113e-05
-1.24413e-05
2.42408e-05
-1.56614e-05
1.9354e-05
-1.96264e-05
1.19307e-05
-2.61343e-05
-3.84866e-05
4.07239e-05
3.58188e-06
4.13797e-05
1.9719e-06
4.18395e-05
1.20352e-07
4.20888e-05
-1.90806e-06
4.2074e-05
-4.06782e-06
4.17002e-05
-6.32576e-06
4.07788e-05
-8.55661e-06
3.90202e-05
-1.06825e-05
3.58764e-05
-1.25172e-05
3.0613e-05
-1.43628e-05
2.07222e-05
-1.62425e-05
-1.77642e-05
5.23005e-05
2.99336e-06
5.28021e-05
1.47036e-06
5.32402e-05
-3.17658e-07
5.35946e-05
-2.26237e-06
5.38031e-05
-4.27612e-06
5.37635e-05
-6.28601e-06
5.32857e-05
-8.07859e-06
5.21048e-05
-9.50131e-06
4.96947e-05
-1.01068e-05
4.51066e-05
-9.77421e-06
3.46929e-05
-5.82874e-06
1.69295e-05
6.61207e-05
3.88648e-06
-6.98716e-05
6.55406e-05
1.84963e-06
6.42663e-05
1.43819e-06
6.35999e-05
1.32656e-06
6.3448e-05
1.8491e-06
6.35931e-05
2.68929e-06
6.38573e-05
3.60899e-06
6.41158e-05
4.44158e-06
6.43014e-05
5.02325e-06
6.43923e-05
5.24549e-06
6.44357e-05
4.95242e-06
4.21376e-06
6.44625e-05
8.5071e-05
2.94178e-06
-8.41268e-05
8.48126e-05
2.10779e-06
8.42121e-05
2.0385e-06
8.34173e-05
2.12116e-06
8.26389e-05
2.62727e-06
8.18934e-05
3.43473e-06
8.11473e-05
4.355e-06
8.03676e-05
5.22135e-06
7.9548e-05
5.8429e-06
7.87169e-05
6.0766e-06
7.79681e-05
5.70128e-06
4.80215e-06
7.73798e-05
9.83391e-05
1.93124e-06
-9.73286e-05
9.86846e-05
1.76211e-06
9.86773e-05
2.04558e-06
9.83158e-05
2.4824e-06
9.76812e-05
3.2617e-06
9.68096e-05
4.30625e-06
9.57239e-05
5.44064e-06
9.44612e-05
6.48405e-06
9.30889e-05
7.21521e-06
9.17244e-05
7.44111e-06
9.0539e-05
6.88678e-06
5.60014e-06
8.9741e-05
0.000110321
-0.000109743
1.353e-06
0.000110582
1.50093e-06
0.000110539
2.08806e-06
0.000110149
2.87191e-06
0.000109416
3.99503e-06
0.000108366
5.3554e-06
0.000107051
6.75592e-06
0.000105559
7.97591e-06
0.000104028
8.74624e-06
0.000102671
8.79779e-06
0.000101737
7.82128e-06
0.000101679
5.65842e-06