/*--------------------------------*- C++ -*----------------------------------*\
| =========                 |                                                 |
| \\      /  F ield         | OpenFOAM: The Open Source CFD Toolbox           |
|  \\    /   O peration     | Version:  v1912                                 |
|   \\  /    A nd           | Website:  www.openfoam.com                      |
|    \\/     M anipulation  |                                                 |
\*---------------------------------------------------------------------------*/
FoamFile
{
    version     2.0;
    format      ascii;
    class       volVectorField;
    location    "350";
    object      U;
}
// * * * * * * * * * * * * * * * * * * * * * * * * * * * * * * * * * * * * * //

dimensions      [0 1 -1 0 0 0 0];


internalField   nonuniform List<vector> 
3072
(
(0.269521 2.22049 0)
(0.293697 1.9314 0)
(0.377405 1.7588 1.40401e-19)
(0.492989 1.65794 7.43105e-19)
(0.613257 1.58425 -1.24889e-18)
(0.736642 1.56812 8.48467e-19)
(0.927266 1.72193 3.88262e-19)
(1.4443 1.65057 6.97091e-19)
(2.4653 1.52343 -1.99028e-19)
(2.97375 1.95563 8.61771e-19)
(3.17872 2.19713 7.30119e-19)
(3.48831 2.35168 6.71079e-19)
(-0.392154 2.74569 -2.57985e-19)
(-0.221092 2.37781 -5.73464e-19)
(0.0416593 2.35398 5.22157e-19)
(0.332192 2.37892 0)
(0.699089 2.44401 1.02717e-18)
(1.34676 2.4246 -1.22603e-18)
(2.18648 2.64895 0)
(2.74701 2.81919 0)
(3.0016 2.82224 0)
(3.09022 2.89152 7.49058e-19)
(3.1372 2.88603 -2.71218e-18)
(3.25609 2.87377 3.67524e-19)
(-0.3514 3.00946 1.73349e-19)
(-0.0733544 2.72434 0)
(0.380561 2.77288 0)
(0.950696 2.81646 -3.39251e-18)
(1.67604 2.95727 1.16626e-18)
(2.32648 3.06484 -1.97852e-18)
(2.75106 3.07942 1.82035e-18)
(2.99174 3.02081 0)
(3.14092 2.89054 0)
(3.1992 2.809 -1.02816e-18)
(3.26037 2.72399 -1.076e-18)
(3.33867 2.63993 3.7569e-18)
(-0.26756 3.32353 -1.35519e-18)
(0.166457 3.15172 -2.35985e-18)
(0.773213 3.26428 1.95244e-18)
(1.44759 3.34301 -1.66602e-18)
(2.07194 3.38767 3.55831e-18)
(2.51732 3.32684 -3.67577e-18)
(2.78557 3.20954 -2.34036e-18)
(2.94928 3.0655 -5.70036e-18)
(3.05123 2.92725 -2.80299e-19)
(3.10482 2.81647 3.3502e-18)
(3.16042 2.71413 3.71937e-18)
(3.22036 2.61483 -2.97175e-18)
(-0.0390932 3.52424 0)
(0.443885 3.50349 1.18995e-18)
(1.05633 3.60944 -2.58092e-18)
(1.67831 3.62968 3.21066e-18)
(2.18471 3.56052 5.89358e-19)
(2.50977 3.41804 2.24114e-18)
(2.7104 3.2528 2.30926e-18)
(2.83466 3.08822 2.20571e-18)
(2.91657 2.93199 -4.66225e-18)
(2.97635 2.79565 3.97246e-18)
(3.03557 2.67228 -5.37744e-18)
(3.09571 2.55653 7.13803e-18)
(0.181717 3.70011 -4.29975e-18)
(0.677127 3.77341 1.65164e-18)
(1.23439 3.84039 4.75377e-18)
(1.76528 3.79295 0)
(2.16511 3.65588 -7.13485e-18)
(2.42094 3.47385 7.3448e-18)
(2.58722 3.28253 0)
(2.70158 3.09736 -5.44768e-18)
(2.78612 2.92565 4.64929e-18)
(2.85415 2.7728 0)
(2.91821 2.63471 2.65612e-19)
(2.98089 2.50752 4.22434e-18)
(0.382598 3.86406 0)
(0.851071 4.01634 -3.83334e-18)
(1.33225 4.02653 3.52059e-18)
(1.76447 3.92697 0)
(2.08379 3.74602 -4.20771e-18)
(2.30016 3.53434 6.64188e-19)
(2.4526 3.32011 6.00751e-18)
(2.56621 3.1166 5.53318e-18)
(2.65638 2.92933 -4.87076e-18)
(2.73282 2.76058 4.81693e-18)
(2.80324 2.60793 -4.16942e-18)
(2.87043 2.46854 -1.16819e-17)
(0.567943 4.05056 0)
(0.972919 4.25986 3.29458e-18)
(1.36281 4.20471 -4.85096e-18)
(1.70491 4.06312 4.83445e-18)
(1.96798 3.84785 0)
(2.16324 3.60887 -6.28309e-18)
(2.31235 3.37158 6.17112e-18)
(2.43091 3.14784 1.16481e-19)
(2.52918 2.94229 -1.02446e-17)
(2.61407 2.75628 -4.79253e-18)
(2.69091 2.58824 -2.6426e-19)
(2.76258 2.43576 8.60403e-18)
(0.70977 4.22442 0)
(1.04742 4.49696 -3.88757e-18)
(1.33766 4.36892 -5.42851e-18)
(1.60328 4.18518 -3.87716e-18)
(1.82639 3.93953 7.80649e-18)
(2.01009 3.67568 0)
(2.16148 3.41679 0)
(2.28801 3.17363 0)
(2.39573 2.95043 0)
(2.48948 2.74828 4.8607e-18)
(2.57313 2.566 -4.88315e-18)
(2.64952 2.40131 4.67159e-18)
(0.823355 4.49162 0)
(1.03449 4.70626 2.72946e-18)
(1.22763 4.47387 -6.16549e-19)
(1.44464 4.23063 4.46631e-18)
(1.64461 3.95668 4.43349e-18)
(1.82389 3.67557 -7.1115e-18)
(1.98188 3.40509 0)
(2.11964 3.15263 -2.15058e-19)
(2.23958 2.92109 -1.75745e-17)
(2.34455 2.71109 0)
(2.43716 2.52155 1.0908e-17)
(2.52016 2.35026 -5.10413e-18)
(0.97268 4.56383 0)
(0.940417 4.68433 3.14692e-18)
(1.02646 4.36711 9.29464e-18)
(1.20904 4.06729 -7.93784e-18)
(1.39945 3.79091 -1.1126e-17)
(1.58448 3.52188 1.75978e-17)
(1.75606 3.26796 -1.98604e-19)
(1.91052 3.03154 -6.89246e-18)
(2.04716 2.81316 5.63736e-18)
(2.16738 2.61312 -1.19842e-17)
(2.27257 2.43086 -1.66101e-17)
(2.36544 2.26458 1.67831e-17)
(0.393794 4.17959 -1.85994e-18)
(0.563345 4.10594 -1.23792e-17)
(0.691218 3.79967 2.36581e-18)
(0.884997 3.54625 0)
(1.0963 3.34794 0)
(1.30276 3.15281 3.57393e-19)
(1.49436 2.96192 1.85996e-17)
(1.66829 2.77748 1.14882e-17)
(1.82344 2.60069 0)
(1.96085 2.43371 1.08246e-17)
(2.08064 2.27751 0)
(2.18567 2.13144 4.89781e-19)
(3.73687 2.32905 3.41543e-19)
(3.96411 2.28892 -4.36296e-19)
(4.10278 2.15771 -2.73487e-19)
(4.19404 2.01963 -5.58011e-19)
(4.19558 1.84269 -2.74502e-19)
(4.15204 1.6546 0)
(4.01347 1.45327 0)
(3.81221 1.25199 7.89355e-19)
(3.52118 1.04201 -9.26508e-19)
(3.13543 0.799814 0)
(2.70173 0.392562 0)
(2.56866 -0.175972 -5.88866e-20)
(3.34431 2.85374 1.60183e-18)
(3.4511 2.79168 0)
(3.55213 2.69363 -8.98403e-19)
(3.64987 2.56028 4.743e-19)
(3.72763 2.39674 2.82374e-19)
(3.76672 2.23066 2.63412e-18)
(3.75875 2.06796 -4.27766e-18)
(3.69954 1.91947 6.70801e-19)
(3.58543 1.80483 0)
(3.33058 1.69627 0)
(3.05999 1.5641 0)
(3.19599 1.07877 7.1008e-19)
(3.41188 2.5543 1.4968e-18)
(3.49102 2.46339 -4.10608e-18)
(3.56508 2.36473 1.13369e-18)
(3.62797 2.26262 2.73127e-18)
(3.67087 2.16086 -2.7854e-18)
(3.68744 2.06448 0)
(3.67277 1.9843 0)
(3.62717 1.93004 -2.28084e-19)
(3.55849 1.9054 1.08383e-18)
(3.41982 1.89633 0)
(3.19577 1.88833 0)
(3.4058 1.77438 -4.62079e-19)
(3.27792 2.51953 3.32303e-19)
(3.33859 2.42465 4.08037e-18)
(3.39831 2.32878 2.8633e-18)
(3.45182 2.23408 -2.84645e-18)
(3.49393 2.1455 0)
(3.52082 2.06914 1.66599e-18)
(3.52896 2.01268 0)
(3.52173 1.98552 2.47249e-18)
(3.49601 1.98881 -7.56182e-19)
(3.42807 2.04593 0)
(3.2485 2.13258 -5.45806e-19)
(3.54777 2.1931 6.46419e-19)
(3.15578 2.44805 -2.91079e-18)
(3.21692 2.34473 0)
(3.27616 2.24626 0)
(3.33051 2.15489 0)
(3.37756 2.07462 0)
(3.41605 2.01046 -3.02044e-18)
(3.44455 1.97095 -1.36178e-19)
(3.46267 1.96259 -1.36699e-18)
(3.47726 1.99479 0)
(3.47214 2.08308 -1.17172e-18)
(3.3564 2.22871 4.8603e-19)
(3.76873 2.431 -1.65733e-19)
(3.04286 2.39002 -2.32633e-19)
(3.10467 2.28073 -6.94795e-18)
(3.16509 2.17955 3.27518e-18)
(3.22287 2.08823 1.95621e-21)
(3.27724 2.01005 2.14559e-19)
(3.32811 1.94953 4.70384e-18)
(3.37647 1.91283 -1.50712e-19)
(3.42439 1.90699 -5.27474e-18)
(3.47404 1.94284 -2.12294e-18)
(3.52821 2.03708 1.06979e-18)
(3.47455 2.22675 -1.32298e-18)
(3.93636 2.55112 -5.34032e-19)
(2.93567 2.34082 1.11492e-17)
(2.9998 2.22349 3.64462e-18)
(3.06285 2.11637 0)
(3.12496 2.02066 0)
(3.18678 1.93888 2.03716e-19)
(3.24967 1.87477 -3.42705e-18)
(3.31609 1.83344 5.37496e-18)
(3.38962 1.82149 -1.26826e-19)
(3.47379 1.84964 1.82283e-18)
(3.57528 1.93695 0)
(3.59707 2.125 -2.3877e-19)
(4.09417 2.5323 -7.92699e-20)
(2.83077 2.29696 -4.12193e-18)
(2.89691 2.17029 -3.79145e-18)
(2.96204 2.05523 4.06497e-18)
(3.0274 1.95229 -3.80534e-18)
(3.09479 1.86317 9.69441e-22)
(3.16683 1.79055 7.55714e-18)
(3.24749 1.73819 -3.47217e-18)
(3.3424 1.71175 1.96245e-18)
(3.45735 1.72106 0)
(3.60475 1.78627 1.18781e-18)
(3.70443 1.95963 6.05017e-19)
(4.20151 2.41113 -9.12697e-19)
(2.72061 2.25206 4.52436e-18)
(2.78841 2.11619 -4.37977e-18)
(2.8547 1.99267 -4.08932e-18)
(2.92161 1.88123 -8.51246e-18)
(2.9918 1.78262 8.19266e-18)
(3.0689 1.69845 -7.86354e-18)
(3.15831 1.63073 0)
(3.268 1.58339 -1.87305e-18)
(3.40686 1.56381 0)
(3.59431 1.59127 0)
(3.77427 1.72808 0)
(4.25924 2.14854 4.35352e-19)
(2.59544 2.19506 4.94316e-18)
(2.66554 2.05324 -9.92147e-18)
(2.73275 1.9235 9.66664e-18)
(2.79972 1.80481 9.27113e-18)
(2.86963 1.69701 4.47482e-18)
(2.94696 1.60061 0)
(3.0384 1.51554 0)
(3.15369 1.44326 4.35805e-18)
(3.30562 1.38707 0)
(3.5238 1.36271 -1.22372e-18)
(3.76614 1.42488 7.9653e-19)
(4.2465 1.73567 -1.26636e-18)
(2.44731 2.11274 -1.09981e-17)
(2.52124 1.97203 1.01444e-17)
(2.58972 1.84151 -9.90643e-18)
(2.65564 1.71956 -2.48808e-17)
(2.72236 1.60554 -2.45258e-19)
(2.79451 1.49903 1.34106e-19)
(2.88026 1.39774 -4.77165e-18)
(2.98959 1.29997 -4.36758e-18)
(3.13944 1.20276 0)
(3.36813 1.11628 3.69826e-18)
(3.64427 1.05046 9.02799e-19)
(4.11579 1.03528 -1.77943e-18)
(2.27568 1.99542 -4.87115e-19)
(2.35417 1.86527 0)
(2.42348 1.74159 0)
(2.48627 1.62247 4.77563e-18)
(2.54634 1.50726 1.45868e-17)
(2.60784 1.39522 -4.76394e-18)
(2.68004 1.28244 -2.19224e-19)
(2.77093 1.16418 -2.47059e-18)
(2.89987 1.02972 -2.29892e-18)
(3.09518 0.879418 -2.31006e-18)
(3.38136 0.656489 0)
(3.71424 -0.0293484 2.32789e-18)
(2.22091 -0.269159 8.40696e-23)
(1.93185 -0.293566 0)
(1.75901 -0.377329 -1.40402e-19)
(1.65799 -0.492964 0)
(1.58429 -0.613278 -6.26074e-19)
(1.56774 -0.73688 8.46796e-19)
(1.72119 -0.92691 0)
(1.6512 -1.4422 4.73551e-19)
(1.52225 -2.46332 -1.903e-19)
(1.95404 -2.97365 -9.34399e-20)
(2.19637 -3.17823 -7.66726e-19)
(2.35084 -3.48802 -6.7144e-19)
(2.746 0.392239 -3.17239e-19)
(2.37771 0.221191 -1.6854e-19)
(2.35377 -0.04154 5.87987e-19)
(2.37833 -0.331933 0)
(2.4437 -0.698234 -1.02855e-18)
(2.42399 -1.34424 5.30078e-19)
(2.64718 -2.18491 0)
(2.81855 -2.74655 8.72843e-19)
(2.82129 -3.00172 -2.89444e-18)
(2.8908 -3.09063 1.93577e-18)
(2.88546 -3.13744 1.44667e-18)
(2.87322 -3.25626 -3.64639e-18)
(3.00944 0.351848 -1.73319e-19)
(2.72408 0.0741639 0)
(2.77246 -0.379364 -1.71913e-18)
(2.81567 -0.948847 0)
(2.95592 -1.67396 0)
(3.06409 -2.32568 -8.03911e-19)
(3.07874 -2.75096 4.10964e-18)
(3.02062 -2.99202 -2.96924e-18)
(2.8902 -3.14129 1.02876e-18)
(2.80864 -3.19964 0)
(2.72364 -3.26065 2.64371e-18)
(2.6396 -3.3389 -1.59496e-18)
(3.32365 0.268433 8.72646e-19)
(3.15134 -0.165125 1.36573e-18)
(3.26371 -0.771666 1.43133e-18)
(3.3423 -1.44619 2.51318e-18)
(3.38724 -2.07124 -1.64283e-18)
(3.32674 -2.51744 -1.25931e-18)
(3.20937 -2.78599 0)
(3.06541 -2.94971 0)
(2.92706 -3.05171 2.17982e-18)
(2.81624 -3.10528 0)
(2.7139 -3.16076 4.58373e-19)
(2.61459 -3.22063 1.29292e-18)
(3.52448 0.0401064 1.43768e-18)
(3.50332 -0.442511 -9.55154e-19)
(3.60935 -1.05513 -2.585e-18)
(3.62977 -1.67752 0)
(3.56076 -2.18461 0)
(3.41828 -2.5101 3.10018e-18)
(3.25292 -2.7108 0)
(3.08826 -2.83512 -5.25627e-18)
(2.93195 -2.91701 -2.22688e-18)
(2.79554 -2.97674 3.97519e-18)
(2.67214 -3.03587 -5.38078e-18)
(2.55638 -3.09594 3.39215e-18)
(3.70054 -0.180607 -2.41638e-18)
(3.77352 -0.675945 -1.4259e-18)
(3.84073 -1.2335 2.04633e-18)
(3.79344 -1.76486 3.63816e-19)
(3.65639 -2.16517 3.59638e-18)
(3.47424 -2.42123 -7.05168e-18)
(3.28278 -2.58758 6.30942e-18)
(3.0975 -2.70195 6.16435e-19)
(2.92569 -2.78647 0)
(2.77277 -2.85446 0)
(2.63463 -2.91845 8.21999e-18)
(2.50742 -2.98108 5.05468e-20)
(3.86456 -0.381707 -3.83431e-20)
(4.01664 -0.850196 -2.12267e-18)
(4.0271 -1.33164 0)
(3.92762 -1.76421 -4.25399e-18)
(3.74661 -2.08384 4.47554e-18)
(3.5348 -2.30036 1.0821e-17)
(3.32043 -2.45286 6.62437e-18)
(3.11679 -2.5665 8.22797e-19)
(2.92943 -2.65665 -1.02563e-17)
(2.76059 -2.73306 4.48902e-18)
(2.60789 -2.80343 4.78379e-18)
(2.46847 -2.87058 2.53275e-19)
(4.05103 -0.567339 2.09476e-19)
(4.26026 -0.972329 3.2972e-18)
(4.20535 -1.36239 0)
(4.06382 -1.70469 -4.83657e-18)
(3.84847 -1.96797 -3.54055e-18)
(3.60935 -2.16335 6.14551e-19)
(3.37193 -2.31252 -1.16837e-17)
(3.14808 -2.4311 4.06169e-19)
(2.94242 -2.52938 -2.63626e-19)
(2.75633 -2.61425 5.03815e-18)
(2.58824 -2.69107 -4.06604e-18)
(2.43573 -2.7627 2.14178e-19)
(4.22485 -0.709516 -3.45762e-18)
(4.49737 -1.04706 1.55904e-18)
(4.36951 -1.33734 -7.90202e-18)
(4.18582 -1.60308 3.87732e-18)
(3.94011 -1.82632 0)
(3.67616 -2.01012 0)
(3.41715 -2.16157 6.44897e-18)
(3.17389 -2.28813 1.17389e-17)
(2.9506 -2.39586 -5.35191e-18)
(2.74837 -2.48961 -4.86252e-18)
(2.56603 -2.57324 -4.65229e-18)
(2.40131 -2.64961 0)
(4.49197 -0.823395 7.18659e-20)
(4.70649 -1.03425 4.14782e-18)
(4.47428 -1.22736 9.4056e-18)
(4.2311 -1.44443 0)
(3.95713 -1.64447 7.75085e-18)
(3.67596 -1.82382 0)
(3.4054 -1.98188 3.31122e-19)
(3.15287 -2.11968 -5.70565e-18)
(2.92125 -2.23965 6.15422e-18)
(2.71119 -2.34462 0)
(2.5216 -2.43724 0)
(2.35027 -2.52023 -1.05346e-17)
(4.56387 -0.972875 -6.61651e-18)
(4.68439 -0.940261 3.14697e-18)
(4.36727 -1.02624 5.26512e-19)
(4.06751 -1.2088 -8.7475e-18)
(3.79115 -1.39924 -3.44409e-18)
(3.52212 -1.58434 -3.51886e-18)
(3.26817 -1.75598 -6.84297e-18)
(3.0317 -1.91048 -1.92915e-17)
(2.81328 -2.04716 -5.63768e-18)
(2.6132 -2.16741 -1.19855e-17)
(2.43091 -2.27261 1.16107e-17)
(2.2646 -2.36549 1.06595e-17)
(4.17956 -0.393919 3.55904e-18)
(4.10578 -0.563227 -1.42059e-18)
(3.79957 -0.691014 3.52045e-19)
(3.54624 -0.88476 7.39275e-18)
(3.34799 -1.09608 0)
(3.1529 -1.30259 -6.68771e-18)
(2.96202 -1.49424 5.99221e-18)
(2.77757 -1.66822 5.33943e-18)
(2.60076 -1.82341 -1.73535e-17)
(2.43376 -1.96085 1.08246e-17)
(2.27754 -2.08066 -1.05977e-17)
(2.13145 -2.1857 0)
(2.32856 -3.73656 -4.93044e-19)
(2.28841 -3.96389 1.20028e-18)
(2.1574 -4.1026 -9.95182e-19)
(2.01932 -4.1939 -3.30413e-19)
(1.84253 -4.19545 -3.92842e-20)
(1.65444 -4.15193 6.88793e-20)
(1.4532 -4.01338 -1.23584e-19)
(1.25192 -3.81213 -3.05734e-19)
(1.04199 -3.52112 -9.26579e-19)
(0.799794 -3.13537 0)
(0.392547 -2.70169 0)
(-0.176083 -2.56859 -5.89005e-20)
(2.85336 -3.34439 -5.22813e-20)
(2.79136 -3.45113 2.11561e-18)
(2.6934 -3.55212 -8.98361e-19)
(2.56012 -3.64983 0)
(2.3966 -3.72759 1.6926e-18)
(2.23055 -3.76668 0)
(2.06787 -3.75871 1.2774e-18)
(1.91941 -3.69951 2.21677e-18)
(1.80479 -3.5854 -1.89136e-18)
(1.69624 -3.33057 0)
(1.56406 -3.05998 0)
(1.07865 -3.196 -2.6352e-20)
(2.55401 -3.41203 1.07366e-18)
(2.46313 -3.49113 -1.01584e-18)
(2.36451 -3.56515 1.13426e-18)
(2.26244 -3.628 0)
(2.16071 -3.67088 -1.22606e-18)
(2.06436 -3.68744 3.11603e-18)
(1.98421 -3.67276 -4.51102e-18)
(1.92997 -3.62715 -5.08172e-18)
(1.90535 -3.55848 3.04839e-18)
(1.89629 -3.41981 0)
(1.88829 -3.19577 6.00441e-19)
(1.77433 -3.40583 1.50331e-19)
(2.51932 -3.27812 1.25208e-18)
(2.42446 -3.33873 -2.84145e-18)
(2.32862 -3.39839 2.86462e-18)
(2.23394 -3.45186 -2.84771e-18)
(2.14539 -3.49394 0)
(2.06905 -3.52082 1.66658e-18)
(2.01261 -3.52895 1.15055e-18)
(1.98545 -3.52171 6.81871e-19)
(1.98876 -3.496 -1.53538e-18)
(2.04589 -3.42806 0)
(2.13253 -3.24849 -3.51943e-19)
(2.19303 -3.54779 5.81467e-19)
(2.4479 -3.15595 3.25987e-18)
(2.34459 -3.21703 -1.69124e-18)
(2.24613 -3.27623 0)
(2.15478 -3.33054 0)
(2.07453 -3.37757 1.6392e-18)
(2.01037 -3.41605 -1.38152e-18)
(1.97087 -3.44454 -2.47003e-19)
(1.96252 -3.46266 0)
(1.99474 -3.47725 -8.13282e-19)
(2.08304 -3.47214 1.17199e-18)
(2.22866 -3.35639 -1.06386e-18)
(2.43095 -3.76876 -2.67558e-19)
(2.38991 -3.04299 -7.00001e-18)
(2.28063 -3.10475 3.35295e-18)
(2.17945 -3.16514 6.77222e-18)
(2.08813 -3.2229 1.95785e-21)
(2.00996 -3.27725 -8.10165e-18)
(1.94945 -3.32811 -3.44605e-18)
(1.91276 -3.37647 -2.37345e-19)
(1.90693 -3.42439 0)
(1.94278 -3.47404 0)
(2.03703 -3.52821 -1.06992e-18)
(2.22671 -3.47455 -7.7011e-19)
(2.55107 -3.93639 2.3409e-19)
(2.34074 -2.93578 3.80972e-18)
(2.22341 -2.99987 -7.51348e-18)
(2.11629 -3.06289 -3.33908e-18)
(2.02058 -3.12499 -1.93169e-19)
(1.93881 -3.18679 3.22277e-18)
(1.8747 -3.24968 3.19661e-18)
(1.83338 -3.31609 1.81231e-18)
(1.82143 -3.38962 1.77415e-18)
(1.84959 -3.47379 -1.97761e-18)
(1.9369 -3.57529 0)
(2.12497 -3.59707 1.24051e-18)
(2.53228 -4.0942 -3.5708e-19)
(2.29691 -2.83086 0)
(2.17024 -2.89697 3.79303e-18)
(2.05517 -2.96208 0)
(1.95223 -3.02743 -1.93212e-19)
(1.86311 -3.09481 9.73636e-22)
(1.79049 -3.16684 7.55959e-18)
(1.73813 -3.2475 -1.64084e-18)
(1.7117 -3.34241 -3.8302e-18)
(1.721 -3.45736 -2.10834e-18)
(1.78622 -3.60476 1.18799e-18)
(1.95959 -3.70444 -2.31526e-18)
(2.41111 -4.20153 1.1646e-18)
(2.25204 -2.72068 4.52609e-18)
(2.11615 -2.78846 -4.38144e-18)
(1.99262 -2.85474 -4.43317e-18)
(1.88118 -2.92164 4.33508e-18)
(1.78257 -2.99182 4.10088e-18)
(1.6984 -3.06892 -1.20475e-17)
(1.63068 -3.15833 0)
(1.58333 -3.26801 1.87349e-18)
(1.56375 -3.40687 1.93706e-18)
(1.59122 -3.59433 0)
(1.72805 -3.77428 2.83241e-18)
(2.14854 -4.25926 -2.07051e-18)
(2.19505 -2.5955 0)
(2.05322 -2.66558 -9.92462e-18)
(1.92347 -2.73279 -5.1491e-18)
(1.80477 -2.79975 -8.9978e-18)
(1.69696 -2.86966 4.47611e-18)
(1.60057 -2.94699 4.23219e-18)
(1.51549 -3.03843 0)
(1.44321 -3.15371 0)
(1.38702 -3.30564 0)
(1.36266 -3.52382 0)
(1.42485 -3.76615 -7.98939e-19)
(1.73567 -4.2465 -1.03592e-19)
(2.11273 -2.44735 5.36139e-18)
(1.97202 -2.52127 4.91647e-18)
(1.84149 -2.58976 2.03886e-17)
(1.71953 -2.65567 5.23562e-18)
(1.60551 -2.7224 1.96889e-17)
(1.49899 -2.79455 -4.74731e-18)
(1.39769 -2.8803 -4.7726e-18)
(1.29992 -2.98962 0)
(1.2027 -3.13946 -4.56593e-18)
(1.11623 -3.36815 -2.45967e-18)
(1.05043 -3.64429 -1.84977e-18)
(1.03529 -4.11579 -1.10578e-25)
(1.99542 -2.27572 0)
(1.86527 -2.35422 0)
(1.74158 -2.42353 -2.03867e-17)
(1.62245 -2.48632 -1.48569e-17)
(1.50723 -2.54639 -4.70622e-18)
(1.39519 -2.60789 0)
(1.2824 -2.68009 4.74591e-18)
(1.16413 -2.77097 0)
(1.02968 -2.8999 -2.00238e-19)
(0.879369 -3.0952 2.3102e-18)
(0.656461 -3.38137 6.68464e-19)
(-0.0293343 -3.71425 4.60934e-18)
(-0.269325 -2.22095 1.14859e-19)
(-0.293787 -1.9319 1.92534e-19)
(-0.377576 -1.75919 -1.77527e-19)
(-0.493194 -1.65826 1.91745e-20)
(-0.613487 -1.5845 0)
(-0.736961 -1.56818 6.697e-20)
(-0.927477 -1.72183 0)
(-1.44391 -1.65071 4.68737e-19)
(-2.46465 -1.52322 1.17027e-18)
(-2.97345 -1.95515 2.59705e-20)
(-3.17834 -2.19683 4.01978e-19)
(-3.48792 -2.3513 8.37318e-19)
(0.39199 -2.74602 4.33045e-19)
(0.220855 -2.37794 -5.75241e-19)
(-0.0418265 -2.35417 5.56319e-19)
(-0.332202 -2.37905 -3.24109e-20)
(-0.698923 -2.44415 -1.0309e-18)
(-1.34622 -2.42456 -2.05976e-19)
(-2.1859 -2.64857 -9.95904e-19)
(-2.7466 -2.81896 -1.5165e-18)
(-3.00132 -2.82193 2.73179e-18)
(-3.09003 -2.89121 -6.28952e-19)
(-3.13701 -2.88571 7.64879e-19)
(-3.25588 -2.87342 4.58795e-19)
(0.351345 -3.00948 -3.47059e-19)
(0.073395 -2.72434 0)
(-0.380351 -2.77282 0)
(-0.950255 -2.81631 -1.44446e-18)
(-1.67546 -2.95703 0)
(-2.32597 -3.06467 -1.17534e-18)
(-2.75063 -3.07923 6.95442e-19)
(-2.99142 -3.02071 2.55246e-18)
(-3.14065 -2.89038 -1.27091e-18)
(-3.19899 -2.80882 -1.8433e-18)
(-3.26015 -2.72379 -3.72072e-18)
(-3.33845 -2.63972 3.75766e-18)
(0.267599 -3.32355 -1.74737e-18)
(-0.166324 -3.15157 -1.36785e-18)
(-0.772966 -3.26411 2.53049e-18)
(-1.44721 -3.34283 8.45254e-19)
(-2.0715 -3.38754 0)
(-2.51693 -3.32678 -4.49275e-18)
(-2.78528 -3.20944 3.63016e-18)
(-2.94901 -3.06542 0)
(-3.051 -2.92713 3.26073e-18)
(-3.10463 -2.81631 -4.80684e-18)
(-3.16024 -2.71396 3.26164e-18)
(-3.22019 -2.61464 4.40249e-19)
(0.0392133 -3.52425 2.17215e-18)
(-0.443708 -3.50343 2.90919e-18)
(-1.05608 -3.60941 8.37492e-19)
(-1.67795 -3.62968 0)
(-2.18433 -3.56055 -2.78645e-18)
(-2.50945 -3.41807 4.79914e-18)
(-2.71011 -3.25281 0)
(-2.83442 -3.08819 -2.86223e-18)
(-2.91638 -2.93193 -2.66117e-18)
(-2.97619 -2.79555 3.97274e-18)
(-3.03543 -2.67216 0)
(-3.09557 -2.55639 -3.06957e-18)
(-0.181585 -3.70017 1.89417e-18)
(-0.676948 -3.77343 6.63432e-19)
(-1.23414 -3.84047 -2.04475e-18)
(-1.76496 -3.79306 -8.84343e-18)
(-2.16478 -3.65601 -2.90873e-19)
(-2.42065 -3.47396 7.34791e-18)
(-2.58698 -3.2826 0)
(-2.70138 -3.0974 8.23531e-18)
(-2.78597 -2.92566 -4.80672e-18)
(-2.85403 -2.77277 4.2215e-18)
(-2.9181 -2.63465 2.6558e-19)
(-2.98079 -2.50743 -5.04996e-20)
(-0.382519 -3.86414 -1.71012e-18)
(-0.850931 -4.01641 -1.37936e-18)
(-1.33203 -4.02666 0)
(-1.76417 -3.92714 9.16936e-18)
(-2.0835 -3.7462 -1.26395e-17)
(-2.2999 -3.53452 -2.07546e-19)
(-2.4524 -3.32026 -1.26257e-17)
(-2.56606 -3.11671 5.03614e-19)
(-2.65626 -2.9294 -4.87045e-18)
(-2.73273 -2.7606 -4.81662e-18)
(-2.80317 -2.60792 4.78085e-18)
(-2.87037 -2.46849 -3.96014e-18)
(-0.567941 -4.05066 -1.55027e-19)
(-0.972833 -4.25994 -1.7728e-18)
(-1.36262 -4.20485 0)
(-1.70465 -4.06332 4.83272e-18)
(-1.96772 -3.84808 3.3292e-18)
(-2.16301 -3.60909 2.95874e-18)
(-2.31217 -3.37178 -4.92993e-19)
(-2.43078 -3.14801 -1.16479e-19)
(-2.52909 -2.94241 -5.48576e-18)
(-2.61401 -2.75636 -5.75016e-19)
(-2.69087 -2.58828 2.26779e-19)
(-2.76254 -2.43577 0)
(-0.70988 -4.2245 2.14987e-18)
(-1.04736 -4.49702 0)
(-1.33749 -4.36904 0)
(-1.60306 -4.18535 -3.87587e-18)
(-1.82615 -3.93974 3.42532e-18)
(-2.00988 -3.67591 -7.02771e-18)
(-2.16132 -3.41701 0)
(-2.28789 -3.17382 5.74563e-18)
(-2.39564 -2.95058 -2.39689e-19)
(-2.48942 -2.7484 4.86013e-18)
(-2.57309 -2.56608 -5.07091e-18)
(-2.6495 -2.40135 9.72917e-18)
(-0.823474 -4.49164 4.47472e-18)
(-1.03444 -4.70624 -1.41887e-18)
(-1.22748 -4.47391 -5.01067e-18)
(-1.44443 -4.23072 -8.5797e-18)
(-1.64438 -3.95681 0)
(-1.82367 -3.67573 6.44437e-18)
(-1.9817 -3.40526 -1.30128e-17)
(-2.1195 -3.15279 5.77218e-18)
(-2.23948 -2.92123 6.15202e-18)
(-2.34448 -2.7112 0)
(-2.43713 -2.52163 -5.8302e-18)
(-2.52015 -2.35031 -9.82101e-18)
(-0.972824 -4.56378 -6.56505e-18)
(-0.940365 -4.68425 1.4309e-18)
(-1.02632 -4.36705 4.38345e-18)
(-1.20882 -4.06725 3.71449e-18)
(-1.39921 -3.79092 -4.89679e-20)
(-1.58425 -3.52194 -1.08772e-17)
(-1.75586 -3.26804 1.29965e-17)
(-1.91035 -3.03163 2.53655e-17)
(-2.04704 -2.81325 -1.77271e-17)
(-2.16731 -2.6132 -1.19822e-17)
(-2.27254 -2.43093 1.09521e-17)
(-2.36544 -2.26463 0)
(-0.393815 -4.17952 5.49995e-18)
(-0.563239 -4.10577 1.87478e-18)
(-0.691058 -3.7995 2.0136e-18)
(-0.884784 -3.54612 7.94302e-18)
(-1.09606 -3.34786 0)
(-1.30253 -3.15277 6.32993e-18)
(-1.49415 -2.96192 -1.26058e-17)
(-1.66812 -2.77751 -5.58479e-18)
(-1.82332 -2.60073 -5.7129e-18)
(-1.96077 -2.43376 1.08235e-17)
(-2.0806 -2.27756 5.65653e-18)
(-2.18568 -2.13148 1.62445e-17)
(-3.73648 -2.32876 1.50851e-19)
(-3.96372 -2.28861 5.6794e-19)
(-4.10241 -2.15747 3.29454e-19)
(-4.19369 -2.01939 -7.91788e-19)
(-4.19525 -1.8425 2.34745e-19)
(-4.15173 -1.65441 0)
(-4.0132 -1.45313 -4.95459e-19)
(-3.81197 -1.25185 3.7383e-19)
(-3.52099 -1.04191 0)
(-3.13529 -0.799717 1.13549e-19)
(-2.70166 -0.392477 0)
(-2.56857 0.176094 -2.92368e-19)
(-3.34411 -2.85341 -4.15915e-18)
(-3.45088 -2.79136 2.98956e-18)
(-3.5519 -2.69334 2.24724e-18)
(-3.64963 -2.56002 -9.36386e-19)
(-3.72739 -2.39651 0)
(-3.76649 -2.23045 0)
(-3.75854 -2.06777 1.46602e-18)
(-3.69936 -1.9193 -1.58444e-18)
(-3.58528 -1.80467 0)
(-3.33048 -1.69611 5.93768e-19)
(-3.05993 -1.56395 -4.8372e-20)
(-3.19596 -1.07863 -1.07931e-18)
(-3.41166 -2.55409 1.55464e-18)
(-3.49081 -2.46318 -2.66954e-18)
(-3.56486 -2.36452 0)
(-3.62776 -2.26242 -2.76117e-18)
(-3.67067 -2.16066 -2.85788e-18)
(-3.68727 -2.06429 6.1577e-18)
(-3.67262 -1.98411 -5.50723e-18)
(-3.62704 -1.92985 0)
(-3.55839 -1.90521 0)
(-3.41975 -1.89613 0)
(-3.19573 -1.88813 -5.28324e-19)
(-3.40576 -1.77418 1.61482e-19)
(-3.27775 -2.51934 -1.25168e-18)
(-3.33843 -2.42445 -3.77193e-19)
(-3.39816 -2.32858 0)
(-3.45167 -2.23388 -3.53759e-19)
(-3.49379 -2.1453 0)
(-3.5207 -2.06894 0)
(-3.52886 -2.01248 1.30571e-18)
(-3.52164 -1.98531 -1.57424e-18)
(-3.49595 -1.9886 1.68969e-18)
(-3.42801 -2.04571 0)
(-3.24848 -2.13235 -5.45916e-19)
(-3.54774 -2.19286 -6.46613e-19)
(-3.15566 -2.4479 6.78967e-18)
(-3.2168 -2.34456 -1.69035e-18)
(-3.27605 -2.24608 3.04151e-18)
(-3.3304 -2.15471 1.37161e-18)
(-3.37746 -2.07444 -4.66014e-18)
(-3.41596 -2.01026 0)
(-3.44448 -1.97074 -1.59416e-18)
(-3.46261 -1.96237 0)
(-3.47721 -1.99457 0)
(-3.47211 -2.08286 1.172e-18)
(-3.3564 -2.22847 3.22707e-20)
(-3.76869 -2.43075 7.29115e-19)
(-3.04277 -2.38991 -3.261e-18)
(-3.10458 -2.2806 -2.45198e-19)
(-3.16501 -2.1794 0)
(-3.2228 -2.08807 0)
(-3.27718 -2.00987 -5.12561e-18)
(-3.32805 -1.94934 3.23167e-18)
(-3.37643 -1.91263 3.30575e-18)
(-3.42435 -1.90677 1.72961e-18)
(-3.47402 -1.94261 -4.11801e-18)
(-3.52819 -2.03684 -1.06988e-18)
(-3.47456 -2.22651 0)
(-3.93634 -2.55086 8.34172e-19)
(-2.93562 -2.34075 -7.82031e-18)
(-2.99975 -2.22339 3.21817e-18)
(-3.06281 -2.11625 3.55698e-18)
(-3.12493 -2.02052 1.93798e-19)
(-3.18675 -1.93873 -4.00117e-19)
(-3.24965 -1.8746 -3.616e-18)
(-3.31608 -1.83325 -5.27509e-18)
(-3.38961 -1.82129 -1.90235e-18)
(-3.47379 -1.84942 1.82269e-18)
(-3.57528 -1.93672 0)
(-3.59709 -2.12477 2.09749e-18)
(-4.09415 -2.53205 -5.34308e-19)
(-2.83075 -2.29693 8.05602e-18)
(-2.8969 -2.17024 -4.37532e-18)
(-2.96203 -2.05515 -4.06449e-18)
(-3.0274 -1.95219 -7.4166e-18)
(-3.0948 -1.86304 7.28636e-18)
(-3.16683 -1.7904 -1.88813e-19)
(-3.2475 -1.73802 1.09982e-17)
(-3.34242 -1.71156 1.75633e-18)
(-3.45737 -1.72084 2.10765e-18)
(-3.60477 -1.78604 0)
(-3.70446 -1.9594 -1.44008e-18)
(-4.20151 -2.41089 -6.87886e-19)
(-2.72061 -2.25207 0)
(-2.78842 -2.11616 4.19639e-18)
(-2.85473 -1.99262 4.08878e-18)
(-2.92164 -1.88115 -4.17831e-18)
(-2.99184 -1.78252 -1.59238e-19)
(-3.06894 -1.69833 -4.17953e-18)
(-3.15836 -1.63058 -3.77422e-18)
(-3.26804 -1.58321 0)
(-3.4069 -1.56361 -1.93642e-18)
(-3.59434 -1.59105 -1.20559e-18)
(-3.7743 -1.72787 4.63405e-18)
(-4.25925 -2.14833 -9.91593e-19)
(-2.59545 -2.19508 0)
(-2.66557 -2.05324 0)
(-2.7328 -1.92347 0)
(-2.79978 -1.80476 -1.40196e-17)
(-2.8697 -1.69693 8.92383e-18)
(-2.94703 -1.60051 8.61533e-18)
(-3.03848 -1.51541 0)
(-3.15376 -1.44311 -4.35717e-18)
(-3.30569 -1.38689 0)
(-3.52385 -1.36251 -2.49928e-18)
(-3.76618 -1.42468 -7.98835e-19)
(-4.24652 -1.73548 -1.26649e-18)
(-2.44734 -2.11277 0)
(-2.52128 -1.97204 0)
(-2.58979 -1.8415 1.04757e-17)
(-2.65572 -1.71953 1.46543e-17)
(-2.72246 -1.60548 4.03227e-19)
(-2.79461 -1.49895 4.87944e-18)
(-2.88037 -1.39763 -2.33861e-18)
(-2.98969 -1.29984 6.612e-18)
(-3.13953 -1.20259 4.56425e-18)
(-3.3682 -1.11609 2.29551e-18)
(-3.64432 -1.05028 -1.84949e-18)
(-4.11583 -1.03514 -1.95059e-18)
(-2.27572 -1.99545 0)
(-2.35424 -1.86529 0)
(-2.42358 -1.74159 -9.95464e-18)
(-2.48638 -1.62245 5.24161e-18)
(-2.54647 -1.50722 -4.70538e-18)
(-2.60797 -1.39516 -4.76349e-18)
(-2.68018 -1.28235 4.9642e-18)
(-2.77107 -1.16406 0)
(-2.9 -1.02958 -4.51908e-18)
(-3.09529 -0.879263 -2.40257e-18)
(-3.38143 -0.656333 2.29624e-18)
(-3.71429 0.0294398 -4.62825e-18)
(-2.22091 0.269141 1.14438e-19)
(-1.93185 0.293549 0)
(-1.759 0.377318 0)
(-1.65798 0.492958 5.99387e-19)
(-1.58428 0.613268 -6.51531e-19)
(-1.56773 0.736857 0)
(-1.7212 0.926903 0)
(-1.65117 1.44233 4.68005e-19)
(-1.5223 2.46353 1.27746e-18)
(-1.95422 2.9738 9.88916e-19)
(-2.1965 3.17838 -3.65177e-19)
(-2.35101 3.4882 7.30805e-19)
(-2.746 -0.392257 -5.98801e-19)
(-2.3777 -0.221203 0)
(-2.35375 0.0415438 0)
(-2.3783 0.331952 -9.96879e-19)
(-2.44368 0.698268 2.09448e-18)
(-2.42403 1.34434 -2.18444e-18)
(-2.64725 2.18505 8.51782e-19)
(-2.81862 2.74671 7.69617e-19)
(-2.82137 3.00187 -3.91118e-19)
(-2.89089 3.09075 7.49837e-19)
(-2.88556 3.13755 0)
(-2.87334 3.25638 -1.62039e-18)
(-3.00943 -0.351882 3.46547e-19)
(-2.72405 -0.074198 0)
(-2.77242 0.379345 0)
(-2.81563 0.948845 -8.68049e-19)
(-2.95588 1.674 6.08715e-19)
(-3.06407 2.32582 -1.49184e-18)
(-3.07875 2.75115 0)
(-3.02064 2.9922 -3.38019e-18)
(-2.89023 3.14144 3.97513e-18)
(-2.80869 3.19977 -1.02795e-18)
(-2.72371 3.26077 -2.61625e-18)
(-2.63968 3.33901 3.75761e-18)
(-3.32366 -0.268515 -8.725e-19)
(-3.1513 0.165048 1.3655e-18)
(-3.26365 0.771627 0)
(-3.34224 1.44623 8.45249e-19)
(-3.38721 2.07139 -6.35477e-19)
(-3.32673 2.51766 1.25907e-18)
(-3.20938 2.78618 0)
(-3.06543 2.94989 -2.05382e-18)
(-2.92709 3.05185 -5.43908e-18)
(-2.81628 3.1054 3.3518e-18)
(-2.71395 3.16086 3.26287e-18)
(-2.61466 3.22073 -6.3866e-18)
(-3.52451 -0.0402067 1.08372e-18)
(-3.50329 0.442429 -1.19075e-18)
(-3.60931 1.05512 2.58483e-18)
(-3.62974 1.67763 0)
(-3.56075 2.18481 -5.87895e-18)
(-3.41827 2.51031 5.65491e-18)
(-3.25291 2.711 3.08682e-18)
(-3.08827 2.83528 2.2069e-18)
(-2.93196 2.91714 0)
(-2.79557 2.97684 0)
(-2.67217 3.03596 0)
(-2.55642 3.09601 -6.78713e-19)
(-3.70059 0.18049 4.83471e-18)
(-3.7735 0.675877 0)
(-3.84073 1.23353 -2.04623e-18)
(-3.79344 1.765 4.60569e-18)
(-3.65638 2.16537 3.56088e-18)
(-3.47422 2.42144 -7.01413e-18)
(-3.28276 2.58775 3.22921e-18)
(-3.09749 2.70209 -1.12883e-17)
(-2.92569 2.78658 -1.57518e-19)
(-2.77277 2.85454 -4.00178e-19)
(-2.63465 2.91851 2.6579e-19)
(-2.50744 2.98112 1.10173e-17)
(-3.86461 0.381603 -6.10986e-18)
(-4.01665 0.850155 3.83875e-18)
(-4.02713 1.3317 -5.89666e-18)
(-3.92764 1.76436 -4.25382e-18)
(-3.7466 2.08403 -7.89776e-18)
(-3.53477 2.30055 -4.20939e-18)
(-3.32039 2.45301 -6.25533e-18)
(-3.11676 2.56661 1.04034e-17)
(-2.9294 2.65673 0)
(-2.76057 2.73312 9.03552e-18)
(-2.60789 2.80347 -1.26634e-17)
(-2.46847 2.8706 4.23575e-18)
(-4.05107 0.567267 -3.04629e-18)
(-4.26028 0.972315 -5.2286e-18)
(-4.20539 1.36246 7.4591e-18)
(-4.06383 1.70483 0)
(-3.84846 1.96813 -4.14091e-18)
(-3.60932 2.16351 6.28634e-18)
(-3.37188 2.31264 -3.09408e-19)
(-3.14803 2.4312 1.16571e-19)
(-2.94238 2.52944 -5.08515e-18)
(-2.7563 2.61428 -9.55498e-18)
(-2.58821 2.69107 4.27283e-18)
(-2.43571 2.76268 -4.31668e-18)
(-4.2249 0.709458 2.15079e-18)
(-4.49741 1.04708 0)
(-4.36955 1.33741 0)
(-4.18583 1.6032 0)
(-3.9401 1.82645 3.42685e-18)
(-3.67612 2.01024 0)
(-3.4171 2.16167 -3.97836e-19)
(-3.17383 2.2882 1.14208e-17)
(-2.95054 2.3959 2.70304e-19)
(-2.74832 2.48962 4.8624e-18)
(-2.56599 2.57323 -4.88484e-18)
(-2.40127 2.64958 1.44069e-17)
(-4.49201 0.823403 7.18708e-20)
(-4.70652 1.03428 7.53444e-18)
(-4.47431 1.22743 -2.3073e-18)
(-4.23112 1.44453 0)
(-3.95713 1.64459 0)
(-3.67594 1.82393 0)
(-3.40536 1.98197 0)
(-3.15282 2.11975 6.0293e-18)
(-2.9212 2.23968 -2.30642e-17)
(-2.71115 2.34463 -1.1349e-17)
(-2.52156 2.43722 1.09104e-17)
(-2.35024 2.52019 5.8147e-18)
(-4.56389 0.972841 -6.56473e-18)
(-4.68441 0.940285 -4.35259e-18)
(-4.3673 1.02631 -2.61575e-18)
(-4.06755 1.2089 0)
(-3.79117 1.39936 0)
(-3.52213 1.58445 7.30997e-18)
(-3.26817 1.75607 -1.3486e-17)
(-3.03169 1.91055 2.55902e-17)
(-2.81326 2.0472 1.80673e-17)
(-2.61318 2.16742 1.12913e-17)
(-2.43089 2.2726 -1.09545e-17)
(-2.26458 2.36545 6.26931e-19)
(-4.17961 0.393942 -1.85979e-18)
(-4.10586 0.563295 0)
(-3.79967 0.691121 3.85629e-18)