/*--------------------------------*- C++ -*----------------------------------*\
| =========                 |                                                 |
| \\      /  F ield         | OpenFOAM: The Open Source CFD Toolbox           |
|  \\    /   O peration     | Version:  v1912                                 |
|   \\  /    A nd           | Website:  www.openfoam.com                      |
|    \\/     M anipulation  |                                                 |
\*---------------------------------------------------------------------------*/
FoamFile
{
    version     2.0;
    format      ascii;
    class       volScalarField;
    location    "150";
    object      epsilon;
}
// * * * * * * * * * * * * * * * * * * * * * * * * * * * * * * * * * * * * * //

dimensions      [0 2 -3 0 0 0 0];


internalField   nonuniform List<scalar> 
3072
(
11.5838
9.10083
11.2339
10.7746
13.6584
54.9946
148.675
201.145
227.329
247.686
257.597
262.718
32.9496
28.2597
34.9992
69.1193
97.0051
109.458
145.057
160.297
165.368
167.871
168.495
166.416
53.3739
59.6433
81.2094
85.4345
96.4733
111.312
127.922
132.64
134.995
135.798
134.232
130.129
65.008
70.5002
81.9981
84.4513
94.6611
106.933
113.197
116.058
117.241
116.903
114.455
110.245
69.1624
72.866
81.0806
83.1185
90.5519
99.3892
104.048
106.205
106.925
106.088
103.557
99.5519
62.0714
69.0596
77.8509
80.1679
86.2915
93.1531
97.0375
99.0137
99.6058
98.7085
96.3202
92.6109
51.6849
59.6475
71.4804
76.4686
82.3021
87.8167
91.2721
93.1674
93.7404
92.9466
90.7915
87.4265
42.5889
48.0513
63.3298
74.2516
81.2758
85.3795
87.5814
88.6083
88.8477
88.0489
86.0674
82.9631
40.09
42.1238
63.92
78.2394
85.495
88.1331
88.5519
87.8694
86.3428
84.4608
82.145
79.1176
43.6688
49.2705
83.6803
101.975
105.874
103.221
97.627
92.4902
88.2098
84.4527
80.6332
76.787
56.8277
94.2679
154.991
171.621
163.949
145.343
125.688
109.502
97.8173
89.2385
82.6721
77.1588
315.844
265.325
271.627
264.343
239.536
205.967
172.164
142.988
119.695
102.393
89.9579
80.7337
260.323
257.737
251.779
241.846
227.17
209.681
188.009
163.378
133.878
101.293
74.9885
102.851
161.258
155.586
149.217
143.801
140.335
140.789
146.412
156.559
170.261
185.941
211.102
277.14
123.968
117.053
110.352
105.157
102.64
102.926
108.265
120.422
142.781
179.13
236.612
367.786
104.763
98.7622
93.0049
88.361
85.9763
85.8488
90.1479
101.216
123.1
164.411
245.596
434.339
94.4543
88.8048
83.258
78.5823
75.8331
75.3482
78.7511
88.5393
109.02
150.312
242.368
470.057
87.9123
82.6725
77.462
72.9418
69.9489
69.1322
71.7751
80.2907
99.0157
138.62
235.611
503.152
83.1601
78.3843
73.5837
69.3119
66.2275
65.1065
67.0711
74.3222
91.1855
127.896
221.355
524.979
79.1076
74.8071
70.4441
66.4759
63.4601
62.1744
63.5736
69.6489
84.8769
119.409
210.538
555.437
75.5185
71.5886
67.6018
63.9128
61.0089
59.6805
60.689
65.7468
79.4525
112.319
202.618
592.689
72.8902
68.9826
65.1462
61.6064
58.7767
57.4755
58.2617
62.507
74.6846
105.721
194.912
628.528
72.152
67.629
63.5156
59.8981
57.0963
56.0248
56.7855
60.3094
70.707
99.4327
188.146
676.042
73.7111
68.0107
63.1557
59.2293
56.4661
55.698
56.4947
59.4413
67.3645
91.3185
175.326
755.674
11.2379
8.86889
11.0142
10.5773
13.4011
53.848
147.269
199.824
226.037
246.414
256.382
261.583
32.5666
27.9097
34.3093
68.0638
96.4422
108.56
144.112
159.501
164.801
167.466
167.469
165.93
52.819
59.01
80.655
84.9391
95.9323
110.711
127.37
132.077
134.477
135.322
133.783
129.797
64.4606
69.9191
81.4677
83.9514
94.1301
106.419
112.722
115.607
116.817
116.533
114.131
109.975
68.6556
72.3493
80.5836
82.6594
90.0855
98.9519
103.639
105.823
106.566
105.771
103.279
99.3122
61.7555
68.6025
77.4007
79.76
85.8967
92.7795
96.6865
98.6816
99.2934
98.4252
96.0684
92.3893
51.4687
59.2842
71.0834
76.1031
81.9636
87.5034
90.9743
92.8807
93.4666
92.6938
90.562
87.2223
42.485
47.7822
63.0223
73.9645
81.018
85.1444
87.3577
88.379
88.6227
87.8341
85.8686
82.7833
40.0833
41.9747
63.669
78.0002
85.2873
87.9476
88.378
87.7111
86.1857
84.3003
81.9904
78.9746
43.667
49.1618
83.5118
101.829
105.765
103.131
97.5452
92.3963
88.1063
84.3551
80.535
76.6938
56.7726
94.1175
154.809
171.521
163.908
145.356
125.72
109.511
97.7945
89.1942
82.6163
77.0996
314.588
264.667
271.175
264.014
239.378
205.909
172.163
143.017
119.732
102.41
89.9561
80.7141
259.277
256.781
250.915
241.169
226.6
209.267
187.686
163.159
133.732
101.245
74.9401
102.796
160.769
155.204
148.895
143.553
140.134
140.634
146.285
156.454
170.183
185.894
211.097
277.11
123.685
116.828
110.167
105.008
102.536
102.853
108.241
120.441
142.831
179.209
236.719
367.879
104.533
98.5699
92.8419
88.2257
85.8822
85.7841
90.144
101.261
123.194
164.552
245.77
434.573
94.2485
88.6313
83.1142
78.4686
75.7582
75.3017
78.7521
88.5902
109.131
150.495
242.643
470.444
87.7201
82.5082
77.3249
72.8327
69.8734
69.0857
71.7695
80.3337
99.1192
138.808
235.912
503.676
82.9807
78.2294
73.4527
69.2052
66.1487
65.0559
67.0559
74.352
91.2746
128.065
221.679
525.594
78.9475
74.6669
70.3242
66.3761
63.3829
62.1236
63.5511
69.6674
84.9491
119.561
210.821
556.145
75.3875
71.4712
67.4995
63.826
60.9406
59.6367
60.6674
65.7617
79.5195
112.458
202.901
593.503
72.7967
68.8944
65.0668
61.538
58.7237
57.447
58.2519
62.5296
74.7557
105.862
195.194
629.465
72.0926
67.5695
63.4599
59.8506
57.0656
56.0231
56.8017
60.3566
70.7975
99.5868
188.437
677.212
73.6773
67.9716
63.1196
59.2001
56.4557
55.7207
56.5355
59.5154
67.4776
91.4885
175.626
757.154
11.2353
8.87011
10.9983
10.5688
13.443
54.4353
148.202
200.88
227.153
247.574
257.532
262.709
32.5942
27.9466
34.3931
68.3206
96.8746
109.241
144.8
160.134
165.48
168.141
168.182
166.479
52.9596
59.226
80.9626
85.2958
96.3671
111.259
127.899
132.606
135.006
135.833
134.262
130.204
64.6732
70.2041
81.8226
84.3337
94.5678
106.896
113.182
116.06
117.262
116.952
114.522
110.33
68.8964
72.6582
80.9403
83.0335
90.4967
99.3692
104.054
106.231
106.968
106.153
103.64
99.647
61.9504
68.9009
77.7508
80.1154
86.2639
93.157
97.0677
99.0646
99.6714
98.7909
96.4158
92.7161
51.6267
59.5499
71.417
76.441
82.3047
87.8501
91.33
93.2413
93.8272
93.0454
90.8998
87.5416
42.5999
47.9945
63.3095
74.2813
81.3375
85.4656
87.6845
88.7146
88.9602
88.1671
86.1909
83.0898
40.1843
42.1406
63.9388
78.3106
85.5987
88.2546
88.6851
88.012
86.486
84.6014
82.2849
79.2564
43.7869
49.3342
83.7745
102.122
106.046
103.398
97.8041
92.6569
88.3696
84.6098
80.7859
76.9348
56.9397
94.3569
155.09
171.768
164.119
145.532
125.881
109.682
97.9822
89.3949
82.8225
77.3034
315.391
265.125
271.504
264.27
239.532
206.006
172.233
143.084
119.81
102.516
90.0835
80.8573
260.35
257.802
251.879
242.008
227.352
209.89
188.213
163.569
134.042
101.439
75.0805
102.982
161.312
155.674
149.324
143.936
140.488
140.962
146.61
156.781
170.513
186.225
211.433
277.544
124.06
117.164
110.476
105.295
102.796
103.097
108.464
120.657
143.059
179.468
237.042
368.406
104.86
98.8704
93.1231
88.4906
86.1216
86.0057
90.3321
101.435
123.367
164.752
246.069
435.146
94.5583
88.9156
83.3749
78.7071
75.9705
75.4964
78.9227
88.7436
109.274
150.649
242.875
471.003
88.0235
82.7872
77.5798
73.0641
70.08
69.2732
71.9359
80.4817
99.2542
138.941
236.117
504.223
83.2789
78.5045
73.7044
69.4341
66.3545
65.2418
67.2225
74.5007
91.409
128.2
221.841
526.142
79.2353
74.9339
70.5692
66.5996
63.5851
62.3056
63.7168
69.8159
85.0857
119.696
211.012
556.7
75.6551
71.7218
67.7309
64.038
61.133
59.8088
60.8259
65.9036
79.6473
112.59
203.083
594.069
73.0324
69.1192
65.2767
61.7315
58.8993
57.6013
58.3936
62.6548
74.8645
105.971
195.357
630.001
72.2905
67.7612
63.6413
60.018
57.2144
56.1465
56.911
60.4453
70.8688
99.6574
188.566
677.625
73.832
68.1273
63.2675
59.3387
56.5779
55.8154
56.6148
59.5654
67.5056
91.5079
175.684
757.411
11.2627
8.88946
11.0445
10.6084
13.4401
54.0027
147.457
199.96
226.14
246.48
256.408
261.576
32.6331
27.9756
34.4076
68.2589
96.6027
108.723
144.27
159.471
164.679
167.38
167.596
165.841
52.8579
59.1294
80.8671
85.1516
96.0569
110.779
127.403
132.037
134.426
135.263
133.736
129.702
64.4703
70.0825
81.6647
84.1088
94.2097
106.443
112.704
115.555
116.749
116.448
114.038
109.871
68.6228
72.5223
80.7552
82.7517
90.0959
98.9397
103.597
105.754
106.483
105.674
103.174
99.2044
61.6919
68.7595
77.5439
79.8162
85.8877
92.7512
96.6314
98.605
99.2039
98.3243
95.9626
92.283
51.3943
59.4106
71.2017
76.1466
81.9447
87.4631
90.9119
92.802
93.3759
92.5945
90.4587
87.1194
42.4021
47.8532
63.1102
74.0038
80.9962
85.0893
87.2817
88.2928
88.528
87.7345
85.7659
82.6822
40.03
42.0109
63.7444
78.043
85.2666
87.8837
88.2886
87.6076
86.0757
84.1907
81.8823
78.8703
43.6546
49.2177
83.615
101.901
105.754
103.061
97.4332
92.2718
87.9794
84.2279
80.4134
76.5804
56.8406
94.2871
155.067
171.697
163.989
145.316
125.6
109.363
97.6466
89.053
82.4845
76.9794
315.174
265.098
271.578
264.361
239.606
206
172.145
142.925
119.601
102.27
89.8206
80.5913
259.247
256.73
250.852
241.068
226.495
209.147
187.577
163.059
133.651
101.17
74.902
102.744
160.724
155.137
148.821
143.469
140.044
140.539
146.18
156.341
170.056
185.751
210.927
276.911
123.59
116.728
110.065
104.905
102.428
102.74
108.116
120.298
142.668
179.017
236.479
367.536
104.428
98.4659
92.7394
88.1228
85.7755
85.6735
90.0216
101.122
123.03
164.35
245.498
434.11
94.1422
88.5281
83.0142
78.3698
75.657
75.1968
78.6362
88.4566
108.969
150.286
242.339
469.88
87.6167
82.409
77.23
72.7404
69.7801
68.9888
71.6623
80.2089
98.9656
138.604
235.603
503.026
82.8809
78.1344
73.3626
69.1187
66.0627
64.967
66.958
74.2372
91.1311
127.871
221.373
524.875
78.8502
74.5745
70.2371
66.2934
63.3022
62.041
63.4616
69.5627
84.8173
119.379
210.524
555.358
75.2887
71.3784
67.4126
63.7446
60.8625
59.5579
60.5839
65.6656
79.3985
112.289
202.611
592.653
72.6926
68.7983
64.9779
61.4555
58.6454
57.3691
58.1709
62.4391
74.6441
105.705
194.916
628.544
71.9833
67.4703
63.3691
59.7665
56.9853
55.9432
56.72
60.2685
70.6929
99.4426
188.169
676.2
73.5686
67.874
63.0302
59.1163
56.3738
55.6383
56.452
59.4285
67.3792
91.3589
175.387
755.965
224.968
237.462
242.846
239.678
231.228
214.377
188.864
163.391
139.135
117.9
100.844
87.6591
116.345
126.082
137.878
149.794
162.366
167.414
163.803
155.05
138.465
121.642
106.095
92.4594
70.5248
76.0505
83.4578
92.2641
103.011
113.094
119.788
122.777
120.282
114.268
103.335
91.7783
50.9751
54.8166
59.6387
65.5556
72.8847
81.0485
88.3294
94.295
96.0416
95.1032
91.7735
85.3481
77.6259
69.9802
64.0735
59.8257
57.3212
57.0367
57.7059
59.4994
63.883
76.9356
114.909
225.038
81.1577
72.2939
65.7535
61.7341
59.9072
59.0949
58.7087
58.5415
59.273
63.4988
77.5355
107.753
81.2147
72.8973
67.278
63.9325
61.628
59.0284
55.8796
52.8838
51.0614
51.3371
55.5012
65.332
77.4797
71.5675
66.6055
61.4902
55.7666
49.9575
45.3906
42.4396
41.1616
41.3462
43.5099
47.5336
224.761
237.149
242.486
239.343
230.949
214.213
188.776
163.359
139.14
117.914
100.852
87.6564
116.178
125.854
137.594
149.488
162.046
167.186
163.623
154.946
138.447
121.635
106.096
92.4534
70.4177
75.9084
83.2778
92.0543
102.776
112.881
119.602
122.645
120.19
114.224
103.333
91.7694
50.9251
54.7374
59.5328
65.4254
72.7324
80.8954
88.188
94.1787
95.9639
95.0503
91.7414
85.3412
77.6102
69.9573
64.0519
59.8167
57.3412
57.097
57.7865
59.6012
64.0133
77.1074
115.149
225.41
81.1425
72.2758
65.7468
61.7544
59.9665
59.189
58.8257
58.6694
59.4149
63.6627
77.7413
108.003
81.2036
72.8953
67.3054
63.9998
61.7315
59.1582
56.02
53.0231
51.2039
51.484
55.6663
65.5182
77.4978
71.6179
66.6996
61.614
55.9043
50.095
45.5205
42.562
41.2825
41.467
43.6373
47.6721
225.108
237.485
242.79
239.614
231.176
214.348
188.854
163.401
139.164
117.95
100.91
87.7344
116.428
126.124
137.874
149.766
162.327
167.389
163.785
155.042
138.473
121.653
106.115
92.4879
70.605
76.1068
83.4862
92.2701
103.005
113.088
119.786
122.776
120.283
114.271
103.344
91.7905
51.0664
54.8832
59.6841
65.5834
72.901
81.0605
88.3409
94.306
96.0484
95.1077
91.7775
85.3531
77.7072
70.065
64.1616
59.9193
57.4234
57.1449
57.8148
59.6102
63.9998
77.0778
115.119
225.466
81.1966
72.3431
65.8163
61.812
59.9973
59.1917
58.8038
58.6318
59.3624
63.5995
77.6702
107.949
81.2324
72.9288
67.3301
64.0023
61.7077
59.1068
55.9526
52.9514
51.1306
51.4113
55.594
65.452
77.5026
71.6097
66.6653
61.557
55.8343
50.0212
45.4493
42.4948
41.2178
41.4048
43.5786
47.617
225.144
237.51
242.85
239.694
231.258
214.42
188.883
163.377
139.108
117.834
100.753
87.5558
116.382
126.079
137.845
149.76
162.351
167.427
163.819
155.057
138.451
121.611
106.045
92.3916
70.5466
76.0529
83.4383
92.2327
102.985
113.085
119.795
122.793
120.293
114.265
103.307
91.7306
51.0169
54.8379
59.6437
65.5483
72.8752
81.0461
88.3379
94.3141
96.0566
95.1152
91.7776
85.3316
77.5162
69.8706
63.97
59.736
57.2584
57.0125
57.702
59.5158
63.9221
76.9986
114.994
225.105
81.0774
72.2099
65.6773
61.6787
59.885
59.1044
58.7417
58.5857
59.3273
63.5636
77.612
107.824
81.1605
72.8449
67.2433
63.9262
61.6505
59.0746
55.9346
52.9357
51.1072
51.3817
55.5483
65.3651
77.462
71.5659
66.6316
61.5349
55.8165
50.001
45.4215
42.4583
41.1707
41.3489
43.5064
47.5083
44.8468
48.9332
53.7551
59.3285
65.5715
71.7957
75.9498
78.1493
77.8725
75.2543
71.8088
68.6348
40.5679
44.4656
48.8771
53.7192
58.726
62.4685
64.5028
65.1159
63.9791
61.6653
59.3354
56.7285
37.5817
41.0822
44.9033
48.933
52.3618
54.4482
55.515
55.608
54.5502
52.9664
50.6927
46.6915
35.3239
38.3918
41.6183
44.8321
47.0814
48.3798
49.0691
49.1416
48.4994
47.2087
44.6179
39.9945
65.2233
56.3815
46.7993
39.8161
35.5565
33.7987
33.5724
34.0667
35.0731
36.5903
38.83
41.5757
51.9213
38.872
30.2733
26.5207
25.806
26.8157
28.5476
30.2875
31.8001
33.2583
35.0934
37.4207
40.5311
26.9188
21.3419
20.1365
21.2625
23.5382
25.9832
28.0436
29.627
30.985
32.5844
34.682
33.8074
19.5952
16.4636
16.7807
18.8463
21.5313
24.0973
26.1664
27.7483
29.1176
30.6844
32.6894
44.7951
48.8683
53.6761
59.2388
65.4741
71.7074
75.8777
78.0892
77.8435
75.2517
71.8406
68.7067
40.5318
44.423
48.828
53.6642
58.6719
62.4267
64.4694
65.0964
63.9937
61.7109
59.4148
56.8365
37.5619
41.061
44.878
48.9052
52.3407
54.4387
55.5146
55.6253
54.6021
53.0435
50.7857
46.7858
35.3241
38.3931
41.6181
44.8307
47.0868
48.3979
49.0984
49.1898
48.5741
47.2934
44.7017
40.0645
65.3417
56.5207
46.9349
39.9357
35.657
33.8923
33.6638
34.1605
35.1718
36.6915
38.9358
41.6836
52.0449
38.9819
30.3581
26.5866
25.8644
26.8755
28.6138
30.3626
31.8823
33.3441
35.1788
37.5058
40.6176
26.9795
21.3841
20.1717
21.2982
23.5806
26.0359
28.1066
29.6967
31.0559
32.6545
34.748
33.8464
19.6203
16.4826
16.8005
18.8718
21.5659
24.1429
26.221
27.8075
29.1763
30.7388
32.7409
44.9041
48.9791
53.7901
59.3546
65.5914
71.8095
75.9583
78.1549
77.879
75.269
71.8366
68.6749
40.6145
44.505
48.9097
53.7453
58.747
62.4834
64.5152
65.1296
64.0023
61.7017
59.3839
56.7853
37.6254
41.122
44.9375
48.9618
52.3858
54.4707
55.5383
55.6364
54.5909
53.0159
50.7458
46.7482
35.3711
38.4367
41.6583
44.8673
47.1141
48.4139
49.1056
49.1832
48.5464
47.2551
44.6682
40.0578
65.2862
56.4573
46.8738
39.8814
35.6107
33.8452
33.6139
34.1069
35.1171
36.64
38.8884
41.6425
51.9884
38.9397
30.3293
26.5641
25.8417
26.8461
28.5757
30.3162
31.8323
33.2959
35.1375
37.4705
40.5923
26.9659
21.3777
20.1656
21.2865
23.5589
26.0024
28.0633
29.649
31.0108
32.6149
34.7166
33.8647
19.6269
16.4874
16.8007
18.8635
21.5462
24.1105
26.1791
27.7619
29.1331
30.7029
32.7108
44.868
48.9483
53.7647
59.3366
65.5818
71.8092
75.9632
78.161
77.8792
75.2615
71.8211
68.6568
40.5864
44.4833
48.8945
53.736
58.7443
62.483
64.5148
65.1259
63.9903
61.6828
59.3583
56.7493
37.6001
41.1031
44.924
48.955
52.3801
54.4634
55.5292
55.6233
54.5715
52.9905
50.7059
46.6806
35.3479
38.4188
41.645
44.8561
47.1018
48.3994
49.0895
49.165
48.5248
47.2225
44.6054
39.9449
65.2616
56.4273
46.8357
39.834
35.558
33.7898
33.5552
34.0441
35.046
36.5559
38.7851
41.5234
51.9372
38.8818
30.2671
26.5004
25.7772
26.7802
28.5065
30.2432
31.752
33.2033
35.0229
37.3463
40.5013
26.8932
21.3109
20.1007
21.2214
23.4918
25.9323
27.9888
29.567
30.9153
32.4991
34.5919
33.7314
19.5517
16.4248
16.741
18.8029
21.483
24.0443
26.108
27.6824
29.0399
30.5872
32.5877
33.6179
36.3519
39.0845
41.6167
43.2341
44.1595
44.6431
44.6362
43.7479
42.1041
40.4132
42.2584
32.3024
34.8632
37.3092
39.3668
40.5903
41.2116
41.2586
40.2435
37.8113
33.1785
21.8401
5.47269
31.1407
33.6681
36.0041
37.7011
38.5606
38.7508
37.7929
35.2304
30.4682
22.2428
7.85375
2.5445
29.8534
32.4091
34.6616
36.0264
36.6148
36.1768
34.0527
29.8862
23.1453
13.3457
4.09579
2.30015
28.2399
30.8242
32.9107
34.0572
34.445
33.3345
30.2254
24.8948
17.3142
8.48602
3.13706
2.28325
26.2099
28.7249
30.6221
31.6632
31.8749
30.2737
26.5663
20.7392
13.3803
6.39387
2.94692
2.26943
23.8288
26.1674
27.8749
28.8458
28.935
27.1185
23.2605
17.555
11.0128
5.62269
3.03671
2.25947
21.282
23.3632
24.8857
25.7866
25.815
24.0403
20.4114
15.2495
9.70432
5.45127
3.29646
2.09725
18.862
20.6493
21.999
22.8172
22.8336
21.2715
18.1113
13.6954
9.08343
5.57646
3.6043
1.83949
17.045
18.549
19.7726
20.4951
20.5261
19.2247
16.6148
12.9535
9.05495
5.95778
3.9272
1.44039
17.1456
18.5363
19.7248
20.4451
20.4839
19.329
17.0105
13.7814
10.1167
6.87097
4.26784
0.943639
29.6609
31.9069
33.7679
34.7816
35.0129
33.398
29.926
25.0243
18.2221
10.8326
5.32727
1.40757
40.1914
15.3086
13.5458
14.7782
17.163
19.8638
22.3388
24.3568
25.9872
27.481
29.1488
31.1665
22.6804
11.9991
11.6359
13.3042
15.7078
18.2631
20.5848
22.5524
24.2686
25.9415
27.7873
29.9084
17.5243
10.0012
10.2396
12.0277
14.3211
16.6772
18.8318
20.7486
22.5467
24.3927
26.4272
28.698
14.1349
8.50195
9.06022
10.8314
12.9706
15.1173
17.102
18.9516
20.7914
22.7539
24.9317
27.3334
11.4244
7.22049
7.9756
9.68646
11.6646
13.6077
15.4206
17.1751
18.9965
20.9918
23.2227
25.6789
9.1093
6.05407
6.95422
8.59466
10.4191
12.171
13.8118
15.4425
17.1835
19.1207
21.3003
23.7026
7.06179
4.9756
5.99443
7.56456
9.24926
10.8277
12.3029
13.7907
15.402
17.2054
19.2374
21.4787
5.26299
3.98817
5.10222
6.6036
8.16724
9.59854
10.9272
12.2707
13.7278
15.3503
17.171
19.1733
3.67183
3.10494
4.2866
5.71988
7.1894
8.51525
9.73639
10.9606
12.2735
13.7104
15.3008
17.0358
2.41335
2.34822
3.57014
4.93564
6.36111
7.68205
8.89068
10.0706
11.2924
12.5839
13.9661
15.4699
1.42279
1.78647
3.11752
4.44558
5.94909
7.40367
8.75635
10.0798
11.4253
12.7818
14.1487
15.6187
1.01653
2.19315
4.13639
5.59536
7.91914
10.6347
13.283
15.9043
18.6182
21.405
24.158
26.995
33.6355
36.3727
39.1029
41.6413
43.2635
44.2001
44.6932
44.7033
43.8228
42.1736
40.4738
42.316
32.3383
34.9026
37.3477
39.411
40.6393
41.2657
41.3187
40.3085
37.8696
33.2184
21.8538
5.47259
31.187
33.7192
36.0551
37.7553
38.6165
38.8078
37.8494
35.2808
30.5032
22.2567
7.85417
2.53981
29.9043
32.4648
34.7167
36.0808
36.6688
36.2273
34.0962
29.9176
23.1596
13.3448
4.09106
2.2944
28.2857
30.875
32.9595
34.1041
34.4896
33.3716
30.2523
24.9082
17.3142
8.47908
3.13128
2.27718
26.2454
28.7645
30.6586
31.698
31.9056
30.2951
26.5769
20.7387
13.3721
6.38511
2.94113
2.26321
23.8491
26.1908
27.8956
28.8653
28.9495
27.1243
23.2574
17.5448
11.0002
5.61316
3.03108
2.25304
21.2867
23.3694
24.8901
25.7905
25.814
24.0325
20.3974
15.2328
9.68938
5.44133
3.29057
2.09084
18.8511
20.6398
21.9884
22.8065
22.8191
21.2526
18.0892
13.6743
9.06669
5.56574
3.59774
1.83407
17.0204
18.526
19.7491
20.4719
20.5011
19.1969
16.5863
12.9286
9.03625
5.94577
3.91961
1.43617
17.1021
18.4974
19.6867
20.4077
20.4479
19.2923
16.9749
13.7512
10.0943
6.85602
4.25833
0.941013
29.5456
31.8059
33.6704
34.6909
34.9375
33.3206
29.8533
24.9617
18.174
10.8046
5.31385
1.40431
40.1961
15.3146
13.554
14.7919
17.1846
19.8952
22.3803
24.4051
26.0373
27.5278
29.1917
31.2042
22.6663
11.9986
11.6409
13.3164
15.7286
18.2934
20.6235
22.5957
24.3111
25.9794
27.8187
29.9356
17.5139
9.99997
10.2448
12.0404
14.3424
16.7072
18.8687
20.7883
22.5839
24.4236
26.4519
28.7161
14.1286
8.50207
9.06656
10.8452
12.9927
15.1475
17.138
18.9891
20.8257
22.7817
24.9514
27.3467
11.4216
7.22208
7.98313
9.70132
11.6875
13.6381
15.4562
17.2119
19.0301
21.0188
23.2424
25.6904
9.10777
6.05659
6.96259
8.61029
10.4427
12.2018
13.8476
15.4797
17.218
19.1497
21.3217
23.7164
7.06144
4.97854
6.00315
7.58051
9.27321
10.8588
12.3391
13.8288
15.4385
17.2374
19.2635
21.497
5.26313
3.99101
5.11075
6.61931
8.1912
9.62989
10.9639
12.3099
13.7666
15.3862
17.2018
19.1978
3.67237
3.10725
4.29438
5.73472
7.21298
8.54679
9.77371
11.0014
12.3149
13.75
15.337
17.0666
2.41297
2.34957
3.57661
4.9488
6.38407
7.71439
8.93002
10.1136
11.3371
12.6279
14.0078
15.5075
1.42228
1.7871
3.12208
4.45635
5.97177
7.43815
8.80036
10.1302
11.479
12.8357
14.2009
15.6673
1.01644
2.19205
4.13728
5.60314
7.9485
10.6877
13.3579
15.9957
18.7215
21.5143
24.2689
27.1034
33.6702
36.4041
39.1323
41.6618
43.2778
44.2036
44.6876
44.6791
43.7848
42.137
40.4556
42.3545
32.3609
34.9223
37.3649
39.4194
40.6405
41.2596
41.301
40.2768
37.834
33.1946
21.8625
5.48647
31.201
33.7296
36.0617
37.7532
38.6091
38.794
37.8259
35.2529
30.4816
22.2559
7.86901
2.54847
29.9115
32.4675
34.7135
36.0714
36.6556
36.2086
34.0745
29.8999
23.1547
13.3591
4.10301
2.30197
28.2907
30.874
32.952
34.0914
34.4732
33.3528
30.2359
24.9015
17.3211
8.49629
3.13973
2.2844
26.2514
28.7631
30.6502
31.6854
31.8891
30.2788
26.5667
20.7397
13.3841
6.39917
2.94752
2.26984
23.8599
26.1935
27.8911
28.8563
28.9361
27.1123
23.2526
17.55
11.0127
5.62334
3.03503
2.25889
21.3039
23.3785
24.8921
25.7877
25.8064
24.0259
20.3977
15.2397
9.70056
5.44892
3.29309
2.09537
18.8756
20.6569
21.9988
22.8117
22.8199
21.2518
18.0953
13.6814
9.07683
5.57151
3.59949
1.83776
17.0522
18.5514
19.7685
20.4863
20.5103
19.2042
16.597
12.9378
9.04566
5.95101
3.92166
1.43852
17.1451
18.535
19.7188
20.4341
20.4671
19.3084
16.9918
13.764
10.1048
6.86235
4.26152
0.94232
29.6466
31.8995
33.7561
34.7632
34.9864
33.3677
29.8923
24.9933
18.1977
10.8182
5.31926
1.4052
40.273
15.3312
13.563
14.7932
17.1763
19.875
22.3479
24.3643
25.9939
27.488
29.1573
31.1768
22.7156
12.0153
11.6495
13.3165
15.7187
18.2719
20.5909
22.5558
24.2699
25.9418
27.7881
29.9099
17.5498
10.0146
10.2511
12.0384
14.3305
16.6843
18.8358
20.7491
22.5443
24.3884
26.4225
28.6932
14.1561
8.51359
9.07045
10.841
12.979
15.1234
17.1047
18.9504
20.7867
22.7469
24.9237
27.325
11.443
7.23077
7.98489
9.69534
11.6724
13.6132
15.4226
17.1731
18.991
20.9838
23.2136
25.6693
9.12475
6.06303
6.96269
8.60299
10.4266
12.1763
13.8138
15.4406
17.1781
19.1129
21.2916
23.6936
7.07448
4.98324
6.00215
7.57246
9.2566
10.833
12.3052
13.7893
15.3976
17.1988
19.2302
21.4716
5.27259
3.9945
5.10917
6.6111
8.1745
9.6041
10.93
12.2701
13.7246
15.3453
17.1657
19.1686
3.67891
3.11003
4.29283
5.72693
7.19662
8.52099
9.73986
10.961
12.2717
13.707
15.2975
17.0335
2.41817
2.35229
3.57556
4.94227
6.36812
7.6881
8.89478
10.0719
11.2919
12.5821
13.9648
15.4698
1.42573
1.78964
3.12247
4.45192
5.956
7.41
8.76111
10.0821
11.4262
12.7816
14.1491
15.6208
1.01858
2.19754
4.1438
5.60402
7.92757
10.6437
13.2901
15.9086
18.6206
21.4072
24.1616
27.0021
33.6469
36.3845
39.1148
41.6441
43.2592
44.1841
44.668
44.6597
43.7599
42.0865
40.3616
42.1487
32.3398
34.9029
37.3459
39.3988
40.6192
41.2382
41.2805
40.2545
37.8013
33.1344
21.7719
5.45505
31.1816
33.7115
36.0431
37.7338
38.5891
38.7732
37.8031
35.2234
30.4369
22.1867
7.82437
2.53633
29.8951
32.4534
34.6995
36.0562
36.6393
36.189
34.0486
29.8628
23.1023
13.2977
4.07969
2.29303
28.2754
30.8628
32.9421
34.0812
34.4617
33.3349
30.2083
24.8605
17.2696
8.45143
3.12609
2.27624
26.2363
28.754
30.6442
31.6798
31.8823
30.264
26.5402
20.7007
13.3405
6.36972
2.93793
2.2626
23.8423
26.1837
27.8861
28.8533
28.9327
27.101
23.2296
17.5171
10.9795
5.60481
3.02945
2.25271
21.2829
23.3663
24.886
25.7847
25.8041
24.0176
20.3788
15.2144
9.67669
5.43658
3.28968
2.09106
18.8501
20.6403
21.989
22.8062
22.8157
21.2455
18.0785
13.6636
9.0596
5.56353
3.59727
1.83408
17.022
18.5293
19.7532
20.4757
20.5027
19.1958
16.582
12.9236
9.03281
5.94492
3.91922
1.43612
17.1061
18.5032
19.6936
20.4148
20.4534
19.2952
16.9748
13.7499
10.0932
6.85573
4.25775
0.940848
29.5564
31.8197
33.6857
34.7067
34.9522
33.3314
29.8597
24.9644
18.172
10.8033
5.31287
1.40392
40.0497
15.2617
13.5078
14.7404
17.122
19.8182
22.2881
24.2992
25.9194
27.3978
29.045
31.0538
22.5944
11.96
11.6028
13.2709
15.6715
18.2227
20.5389
22.4984
24.202
25.8574
27.678
29.7873
17.4625
9.96973
10.2123
11.9997
14.2906
16.643
18.7922
20.7004
22.4847
24.311
26.3194
28.5731
14.0881
8.47716
9.03826
10.8088
12.9461
15.0898
17.0697
18.9108
20.7369
22.68
24.8299
27.2127
11.3888
7.2011
7.95835
9.66885
11.6458
13.5869
15.3959
17.1429
18.952
20.9292
23.1346
25.5705
9.08138
6.03888
6.94092
8.58143
10.4056
12.1565
13.7946
15.4195
17.1502
19.0725
21.2292
23.6135
7.04051
4.9637
5.98426
7.55493
9.24021
10.8188
12.2927
13.7764
15.3801
17.1723
19.1868
21.4128
5.24694
3.97877
5.09437
6.59664
8.16179
9.59449
10.9231
12.2643
13.7165
15.332
17.14
19.1316
3.66067
3.09738
4.28019
5.71454
7.1864
8.51495
9.73707
10.9611
12.2714
13.7053
15.2881
17.0172
2.40518
2.34173
3.56427
4.93041
6.3591
7.68403
8.89539
10.0767
11.2987
12.5906
13.9701
15.4713
1.41768
1.78079
3.11061
4.43842
5.94642
7.4062
8.76331
10.0915
11.4408
12.8022
14.1702
15.6459
1.0135
2.18386
4.12051
5.57639
7.90773
10.6312
13.2898
15.9245
18.6523
21.4569
24.2248
27.0893
)
;

boundaryField
{
    rotor
    {
        lowReCorrection 0;
        type            epsilonWallFunction;
        value           nonuniform List<scalar> 
192
(
11.5838
9.10083
11.2339
10.7746
13.6584
54.9946
148.675
201.145
227.329
247.686
257.597
262.718
260.323
257.737
251.779
241.846
227.17
209.681
188.009
163.378
133.878
101.293
74.9885
102.851
11.2379
8.86889
11.0142
10.5773
13.4011
53.848
147.269
199.824
226.037
246.414
256.382
261.583
259.277
256.781
250.915
241.169
226.6
209.267
187.686
163.159
133.732
101.245
74.9401
102.796
11.2353
8.87011
10.9983
10.5688
13.443
54.4353
148.202
200.88
227.153
247.574
257.532
262.709
260.35
257.802
251.879
242.008
227.352
209.89
188.213
163.569
134.042
101.439
75.0805
102.982
11.2627
8.88946
11.0445
10.6084
13.4401
54.0027
147.457
199.96
226.14
246.48
256.408
261.576
259.247
256.73
250.852
241.068
226.495
209.147
187.577
163.059
133.651
101.17
74.902
102.744
11.5838
32.9496
53.3739
65.008
69.1624
62.0714
51.6849
42.5889
40.09
43.6688
56.8277
315.844
102.744
276.911
367.536
434.11
469.88
503.026
524.875
555.358
592.653
628.544
676.2
755.965
11.2379
32.5666
52.819
64.4606
68.6556
61.7555
51.4687
42.485
40.0833
43.667
56.7726
314.588
102.851
277.14
367.786
434.339
470.057
503.152
524.979
555.437
592.689
628.528
676.042
755.674
11.2353
32.5942
52.9596
64.6732
68.8964
61.9504
51.6267
42.5999
40.1843
43.7869
56.9397
315.391
102.796
277.11
367.879
434.573
470.444
503.676
525.594
556.145
593.503
629.465
677.212
757.154
11.2627
32.6331
52.8579
64.4703
68.6228
61.6919
51.3943
42.4021
40.03
43.6546
56.8406
315.174
102.982
277.544
368.406
435.146
471.003
504.223
526.142
556.7
594.069
630.001
677.625
757.411
)
;
    }
    stator
    {
        lowReCorrection 0;
        type            epsilonWallFunction;
        value           nonuniform List<scalar> 
192
(
29.6609
31.9069
33.7679
34.7816
35.0129
33.398
29.926
25.0243
18.2221
10.8326
5.32727
1.40757
1.01653
2.19315
4.13639
5.59536
7.91914
10.6347
13.283
15.9043
18.6182
21.405
24.158
26.995
29.5456
31.8059
33.6704
34.6909
34.9375
33.3206
29.8533
24.9617
18.174
10.8046
5.31385
1.40431
1.01644
2.19205
4.13728
5.60314
7.9485
10.6877
13.3579
15.9957
18.7215
21.5143
24.2689
27.1034
29.6466
31.8995
33.7561
34.7632
34.9864
33.3677
29.8923
24.9933
18.1977
10.8182
5.31926
1.4052
1.01858
2.19754
4.1438
5.60402
7.92757
10.6437
13.2901
15.9086
18.6206
21.4072
24.1616
27.0021
29.5564
31.8197
33.6857
34.7067
34.9522
33.3314
29.8597
24.9644
18.172
10.8033
5.31287
1.40392
1.0135
2.18386
4.12051
5.57639
7.90773
10.6312
13.2898
15.9245
18.6523
21.4569
24.2248
27.0893
40.1914
22.6804
17.5243
14.1349
11.4244
9.1093
7.06179
5.26299
3.67183
2.41335
1.42279
1.01653
42.2584
5.47269
2.5445
2.30015
2.28325
2.26943
2.25947
2.09725
1.83949
1.44039
0.943639
1.40757
40.1961
22.6663
17.5139
14.1286
11.4216
9.10777
7.06144
5.26313
3.67237
2.41297
1.42228
1.01644
42.316
5.47259
2.53981
2.2944
2.27718
2.26321
2.25304
2.09084
1.83407
1.43617
0.941013
1.40431
40.273
22.7156
17.5498
14.1561
11.443
9.12475
7.07448
5.27259
3.67891
2.41817
1.42573
1.01858
42.3545
5.48647
2.54847
2.30197
2.2844
2.26984
2.25889
2.09537
1.83776
1.43852
0.94232
1.4052
40.0497
22.5944
17.4625
14.0881
11.3888
9.08138
7.04051
5.24694
3.66067
2.40518
1.41768
1.0135
42.1487
5.45505
2.53633
2.29303
2.27624
2.2626
2.25271
2.09106
1.83408
1.43612
0.940848
1.40392
)
;
    }
    front
    {
        type            empty;
    }
    back
    {
        type            empty;
    }
}


// ************************************************************************* //
