/*--------------------------------*- C++ -*----------------------------------*\
| =========                 |                                                 |
| \\      /  F ield         | OpenFOAM: The Open Source CFD Toolbox           |
|  \\    /   O peration     | Version:  v1912                                 |
|   \\  /    A nd           | Website:  www.openfoam.com                      |
|    \\/     M anipulation  |                                                 |
\*---------------------------------------------------------------------------*/
FoamFile
{
    version     2.0;
    format      ascii;
    class       volScalarField;
    location    "150";
    object      k;
}
// * * * * * * * * * * * * * * * * * * * * * * * * * * * * * * * * * * * * * //

dimensions      [0 2 -2 0 0 0 0];


internalField   nonuniform List<scalar> 
3072
(
0.0732353
0.0936784
0.107894
0.104919
0.122537
0.308398
0.602044
0.737617
0.800656
0.847896
0.870362
0.881839
0.158834
0.238986
0.289296
0.35531
0.448409
0.552557
0.766587
0.947034
1.13395
1.30696
1.45154
1.56568
0.233673
0.47711
0.539726
0.534016
0.645483
0.851287
1.10587
1.33465
1.53437
1.69686
1.8145
1.87639
0.283023
0.574331
0.637826
0.666718
0.847401
1.08492
1.32976
1.54018
1.7166
1.85187
1.94257
1.98263
0.311579
0.657185
0.735124
0.798313
0.990751
1.22879
1.45438
1.64675
1.80312
1.92058
1.99594
2.02769
0.305023
0.676301
0.797665
0.89032
1.0792
1.30053
1.50639
1.68291
1.82406
1.92945
1.99679
2.02609
0.283261
0.657144
0.81781
0.943985
1.12428
1.32277
1.50998
1.67325
1.80502
1.90281
1.96529
1.99365
0.260978
0.616888
0.822443
0.980605
1.15554
1.33254
1.49769
1.63795
1.75336
1.84065
1.89828
1.92697
0.261965
0.614963
0.873106
1.07519
1.23791
1.37609
1.50284
1.6049
1.69224
1.76377
1.81387
1.84078
0.288847
0.704236
1.10111
1.34591
1.46488
1.52973
1.57872
1.62723
1.6704
1.706
1.73555
1.75243
0.357548
0.988181
1.61583
1.89315
1.92352
1.88169
1.80223
1.74158
1.71256
1.70065
1.69045
1.68246
1.15962
1.63697
2.2118
2.41722
2.39862
2.28641
2.12089
1.96479
1.83699
1.74765
1.69273
1.64749
0.876374
0.870451
0.856808
0.833965
0.799703
0.757972
0.704678
0.641656
0.561826
0.466509
0.381532
0.314506
1.63061
1.64644
1.6308
1.57161
1.50618
1.43725
1.36504
1.28613
1.1851
0.995243
0.75146
0.656295
1.89045
1.87087
1.82254
1.75961
1.69428
1.63289
1.57605
1.52
1.4502
1.31914
1.01841
0.847475
1.98876
1.96424
1.91811
1.86053
1.80175
1.75082
1.71166
1.68006
1.64881
1.58086
1.34553
1.00598
2.02956
2.00219
1.95554
1.89988
1.84614
1.8052
1.7841
1.77858
1.78087
1.76288
1.60262
1.12096
2.02695
2.0014
1.95827
1.90734
1.85904
1.82605
1.81597
1.83525
1.88021
1.91149
1.84515
1.23453
1.99408
1.97138
1.93268
1.88756
1.84639
1.82134
1.82178
1.85808
1.9378
2.02193
2.03443
1.33185
1.93003
1.91339
1.8808
1.84146
1.8068
1.78919
1.79978
1.85287
1.96029
2.10112
2.1837
1.44566
1.84584
1.83412
1.80772
1.77272
1.74318
1.73229
1.7494
1.81579
1.95581
2.1539
2.29589
1.57366
1.7542
1.74359
1.72049
1.68822
1.6627
1.6573
1.67816
1.75301
1.91766
2.1754
2.42303
1.70194
1.67168
1.65452
1.62846
1.59813
1.57727
1.5766
1.60156
1.68005
1.85432
2.17239
2.57637
1.85423
1.61141
1.57862
1.54533
1.51587
1.50324
1.50863
1.54032
1.61771
1.77536
2.10953
2.68811
2.06945
0.0720299
0.0921574
0.106519
0.103659
0.121011
0.303965
0.598168
0.734426
0.797683
0.845054
0.867694
0.879373
0.157637
0.237021
0.285783
0.351568
0.44653
0.549416
0.762038
0.942066
1.12883
1.30166
1.44642
1.56065
0.232072
0.473929
0.537236
0.531524
0.641923
0.846427
1.10025
1.32878
1.52867
1.69133
1.80929
1.87174
0.28141
0.57117
0.634727
0.663323
0.842956
1.07965
1.32416
1.53455
1.71115
1.84666
1.93786
1.9784
0.310032
0.654074
0.731863
0.794713
0.986325
1.22378
1.44924
1.64166
1.79821
1.91594
1.99181
2.02403
0.303944
0.673773
0.794503
0.886874
1.07522
1.29622
1.50205
1.67869
1.81994
1.92552
1.9933
2.02302
0.282423
0.654947
0.814952
0.941026
1.12105
1.31942
1.50673
1.66972
1.80149
1.89945
1.96226
1.99107
0.260595
0.615315
0.820089
0.978219
1.15304
1.32999
1.49542
1.63559
1.75089
1.83823
1.89603
1.92497
0.261879
0.614075
0.87168
1.07388
1.23662
1.37478
1.5015
1.60377
1.69091
1.76239
1.81254
1.83959
0.288839
0.703992
1.10066
1.34598
1.46517
1.52991
1.5788
1.62706
1.67028
1.70572
1.7352
1.7521
0.357294
0.987432
1.61496
1.89281
1.92368
1.88268
1.80345
1.74256
1.71319
1.70126
1.69095
1.68289
1.15659
1.63356
2.20873
2.41542
2.39732
2.28625
2.12141
1.96577
1.83814
1.74868
1.6937
1.64838
0.874098
0.868376
0.85493
0.832478
0.798431
0.757028
0.703914
0.641118
0.561446
0.466382
0.381385
0.314409
1.62601
1.64269
1.62764
1.56901
1.50407
1.43565
1.36391
1.2854
1.18464
0.994883
0.75136
0.656277
1.88616
1.86732
1.81953
1.7571
1.69228
1.63143
1.57513
1.51956
1.45015
1.31936
1.01864
0.847658
1.98486
1.9609
1.91528
1.85823
1.80001
1.74968
1.71105
1.68
1.64923
1.58156
1.34621
1.00639
2.02621
1.99927
1.95309
1.89794
1.84476
1.8045
1.78396
1.77893
1.78172
1.7641
1.60378
1.1216
2.02418
1.99893
1.95622
1.90577
1.85798
1.82564
1.81613
1.83605
1.88153
1.91316
1.84671
1.2354
1.99183
1.96944
1.93111
1.88642
1.84574
1.82123
1.82222
1.85915
1.93949
2.02388
2.03633
1.33288
1.92833
1.91201
1.8798
1.84083
1.8066
1.78948
1.80057
1.85428
1.96221
2.10338
2.18585
1.44687
1.84489
1.83339
1.80731
1.77263
1.74348
1.73303
1.75057
1.81758
1.95816
2.15657
2.29827
1.57509
1.75399
1.74353
1.72065
1.68868
1.6636
1.65855
1.67982
1.75522
1.92048
2.1784
2.42565
1.70364
1.67206
1.65497
1.62911
1.59909
1.5789
1.57858
1.60385
1.68279
1.8577
2.17601
2.57943
1.85636
1.61224
1.57946
1.54633
1.51721
1.50513
1.51086
1.54312
1.62111
1.7792
2.11379
2.69171
2.07218
0.0720439
0.0921782
0.106442
0.103609
0.121264
0.306211
0.600762
0.736965
0.800269
0.847651
0.870232
0.881848
0.157765
0.237176
0.28587
0.352016
0.447648
0.55162
0.76519
0.945855
1.13293
1.30605
1.45094
1.56531
0.2325
0.475037
0.538611
0.533076
0.644467
0.849715
1.10442
1.33348
1.53363
1.69649
1.81453
1.87683
0.282017
0.572733
0.636606
0.665591
0.845991
1.08342
1.32863
1.53948
1.71639
1.85209
1.94329
1.9837
0.310724
0.655896
0.734031
0.797191
0.989488
1.22769
1.45377
1.64666
1.80355
1.92149
1.99737
2.02948
0.304559
0.675639
0.796825
0.88947
1.07837
1.30007
1.50649
1.68364
1.82524
1.93104
1.99886
2.02851
0.282987
0.656731
0.81733
0.943647
1.12413
1.32308
1.51097
1.67453
1.80668
1.90486
1.96773
1.99646
0.261054
0.616937
0.822373
0.980795
1.15598
1.33346
1.49941
1.64008
1.75576
1.84334
1.90124
1.93018
0.262325
0.615559
0.873835
1.07634
1.23934
1.37789
1.50514
1.6077
1.69523
1.76696
1.81727
1.84437
0.289372
0.705517
1.10277
1.34826
1.46749
1.53241
1.5817
1.63038
1.67377
1.70952
1.73923
1.75627
0.358006
0.989322
1.61718
1.89488
1.92558
1.88437
1.80526
1.74476
1.71586
1.70409
1.69408
1.68629
1.15859
1.63614
2.2113
2.41743
2.39908
2.28754
2.12255
1.96696
1.83959
1.75061
1.69586
1.65087
0.876461
0.870631
0.85707
0.834369
0.800162
0.758505
0.70521
0.642177
0.562301
0.466967
0.381852
0.31478
1.63052
1.64688
1.63156
1.57261
1.50737
1.43861
1.36652
1.28764
1.1865
0.996342
0.752259
0.656945
1.89111
1.8719
1.82381
1.76107
1.69592
1.63472
1.57806
1.52209
1.45226
1.32101
1.01977
0.848443
1.99002
1.96576
1.91983
1.86245
1.80387
1.75313
1.7141
1.68265
1.65142
1.58331
1.34748
1.00724
2.03151
2.00428
1.95778
1.90229
1.84873
1.80799
1.78702
1.7816
1.78395
1.76586
1.6051
1.12248
2.02951
2.00399
1.96096
1.91015
1.86198
1.82918
1.81928
1.83872
1.88371
1.91493
1.84813
1.23629
1.99706
1.97444
1.9358
1.89077
1.8497
1.82478
1.82536
1.86183
1.94171
2.02574
2.03783
1.33382
1.93341
1.91685
1.88432
1.84503
1.81044
1.79294
1.80366
1.85692
1.96444
2.10527
2.18743
1.44786
1.84958
1.83792
1.81156
1.77657
1.74707
1.73628
1.75351
1.82009
1.96026
2.15839
2.29992
1.57611
1.75818
1.74762
1.72451
1.69225
1.66676
1.66144
1.68243
1.75747
1.92232
2.18007
2.42728
1.70461
1.67572
1.65861
1.6325
1.60218
1.58138
1.5808
1.60591
1.68458
1.85907
2.17724
2.58085
1.85713
1.615
1.58231
1.54909
1.51974
1.50726
1.51274
1.54454
1.62208
1.77993
2.11434
2.69262
2.07264
0.0721371
0.0923013
0.106713
0.103861
0.121246
0.304567
0.598668
0.734754
0.797921
0.845188
0.86771
0.879343
0.157854
0.237504
0.286506
0.352473
0.447117
0.549735
0.762595
0.942544
1.12921
1.30182
1.44635
1.56056
0.232203
0.474595
0.538315
0.532512
0.642058
0.846692
1.10049
1.32885
1.52851
1.69093
1.80868
1.87091
0.281454
0.571773
0.63557
0.663458
0.842734
1.0796
1.32398
1.53415
1.71051
1.84582
1.9368
1.97715
0.309953
0.654434
0.732292
0.79436
0.985873
1.22339
1.44871
1.64089
1.79722
1.91478
1.99045
2.0225
0.303743
0.673914
0.794621
0.886246
1.0745
1.29552
1.50117
1.67756
1.81861
1.92403
1.99167
2.02128
0.28216
0.654997
0.814928
0.940249
1.12005
1.31835
1.50547
1.66837
1.79998
1.89779
1.96046
1.9891
0.260281
0.615201
0.819879
0.97732
1.1518
1.32862
1.49384
1.63387
1.74905
1.83627
1.89397
1.92284
0.261651
0.6139
0.871268
1.07285
1.23511
1.37298
1.49959
1.60158
1.68865
1.76007
1.81019
1.83722
0.288791
0.704101
1.10056
1.34523
1.46366
1.52782
1.57644
1.62455
1.66759
1.70301
1.73253
1.74947
0.357586
0.988502
1.61627
1.89348
1.9235
1.8811
1.80111
1.73987
1.71038
1.69838
1.68809
1.6801
1.15807
1.63573
2.21122
2.41717
2.39853
2.28619
2.12031
1.96385
1.83566
1.74596
1.69097
1.64566
0.874011
0.868242
0.854767
0.832229
0.798169
0.756727
0.703631
0.640848
0.561211
0.466147
0.381251
0.314298
1.6257
1.64214
1.62694
1.56819
1.50318
1.4347
1.36293
1.28445
1.18379
0.994252
0.750933
0.655957
1.88522
1.8662
1.81832
1.75584
1.69097
1.63006
1.57372
1.51815
1.44881
1.31817
1.01779
0.847123
1.98352
1.95945
1.91375
1.85663
1.79833
1.74794
1.70928
1.6782
1.64747
1.57996
1.34496
1.00566
2.02457
1.99752
1.95127
1.89604
1.84279
1.80245
1.78187
1.77681
1.77962
1.76212
1.60215
1.1207
2.02233
1.99698
1.9542
1.90368
1.85584
1.82341
1.81381
1.83365
1.87914
1.91086
1.84477
1.23433
1.98975
1.96729
1.92891
1.88418
1.84343
1.81884
1.81976
1.85659
1.93685
2.02135
2.03412
1.33167
1.92612
1.90972
1.87744
1.83844
1.80416
1.78697
1.79797
1.85156
1.95943
2.10063
2.18346
1.44552
1.84247
1.83093
1.80481
1.77011
1.74092
1.73041
1.74785
1.81474
1.95521
2.15362
2.2957
1.5736
1.75138
1.74092
1.71804
1.68605
1.66093
1.65583
1.67701
1.75228
1.91739
2.17532
2.42295
1.70198
1.66936
1.65232
1.62645
1.59639
1.57615
1.57578
1.60095
1.67976
1.85451
2.17277
2.57652
1.85451
1.60959
1.57685
1.5437
1.51451
1.50235
1.50801
1.54018
1.61807
1.77602
2.11046
2.68869
2.07
2.49116
2.51902
2.56076
2.55998
2.52533
2.43826
2.29376
2.13277
1.97239
1.83402
1.72404
1.64202
2.15893
2.15856
2.18265
2.22675
2.25733
2.25005
2.20686
2.11519
1.9903
1.86463
1.74602
1.6429
1.81773
1.82755
1.85015
1.88743
1.92753
1.95807
1.96485
1.9475
1.90577
1.82393
1.72389
1.6237
1.56289
1.58933
1.61822
1.65289
1.68915
1.72357
1.74349
1.74425
1.72947
1.69828
1.64186
1.55725
1.57766
1.52595
1.48329
1.45701
1.45681
1.47301
1.51286
1.57969
1.6924
1.94911
2.52577
2.54486
1.558
1.49192
1.44611
1.43335
1.44343
1.46908
1.50342
1.54432
1.60138
1.73661
2.08741
2.18435
1.53426
1.47091
1.43967
1.44072
1.45253
1.46306
1.46612
1.47015
1.48617
1.53709
1.7044
1.8055
1.49649
1.4714
1.45452
1.43394
1.40844
1.37973
1.35874
1.35061
1.35894
1.38291
1.46198
1.52945
2.48698
2.51462
2.55643
2.55628
2.52222
2.43645
2.29287
2.13274
1.97295
1.8349
1.72504
1.64303
2.15491
2.15417
2.17815
2.2224
2.25373
2.24724
2.20475
2.11436
1.99001
1.86492
1.74665
1.64371
1.81429
1.82381
1.84628
1.88351
1.92391
1.95493
1.96237
1.9455
1.90465
1.82384
1.72424
1.62427
1.56029
1.58641
1.61514
1.64974
1.68616
1.72078
1.74261
1.74187
1.72795
1.69736
1.64189
1.55771
1.57863
1.52696
1.48448
1.45878
1.45893
1.47572
1.51626
1.58349
1.69655
1.95365
2.53029
2.54885
1.55887
1.49288
1.44746
1.4354
1.4459
1.47232
1.50715
1.54828
1.60557
1.74113
2.09224
2.18878
1.53498
1.47194
1.44145
1.44293
1.4554
1.46664
1.46995
1.47404
1.49015
1.54126
1.70897
1.80995
1.49745
1.4731
1.45671
1.43658
1.41149
1.38322
1.36226
1.3542
1.36259
1.38668
1.46598
1.53343
2.49046
2.51805
2.5596
2.55908
2.52465
2.43813
2.29412
2.13366
1.97381
1.83592
1.72641
1.6447
2.15887
2.1582
2.18195
2.22586
2.25659
2.24958
2.20666
2.11555
1.99093
1.86565
1.74742
1.64479
1.81831
1.82768
1.8499
1.88689
1.92691
1.95757
1.96455
1.94732
1.90594
1.82457
1.72487
1.62493
1.56399
1.58986
1.61833
1.65271
1.68884
1.72322
1.74462
1.74351
1.7293
1.69841
1.64244
1.55807
1.58059
1.52907
1.4866
1.46059
1.46049
1.47685
1.5168
1.58364
1.69647
1.95342
2.53016
2.5485
1.56018
1.49436
1.44891
1.43652
1.44678
1.47265
1.50694
1.5477
1.60477
1.74019
2.0913
2.1878
1.53579
1.47283
1.4421
1.44334
1.45548
1.46608
1.46905
1.47294
1.48888
1.53993
1.70762
1.80864
1.49779
1.47327
1.4566
1.43619
1.4108
1.38219
1.36107
1.35282
1.36109
1.38513
1.46446
1.53201
2.49006
2.51762
2.55928
2.55883
2.52437
2.43767
2.2932
2.13214
1.97154
1.83294
1.72275
1.64063
2.15788
2.15723
2.18108
2.22515
2.25604
2.24906
2.20603
2.11459
1.98969
1.86395
1.74518
1.64187
1.81707
1.82652
1.84883
1.88595
1.92613
1.95692
1.96399
1.94674
1.90519
1.82343
1.72327
1.62295
1.5627
1.5887
1.61729
1.65179
1.68806
1.72257
1.74407
1.74299
1.72878
1.69778
1.64141
1.55678
1.57623
1.52455
1.482
1.45614
1.45622
1.4729
1.51336
1.58056
1.69352
1.95047
2.52713
2.54629
1.5569
1.49082
1.4452
1.43292
1.44329
1.46954
1.50435
1.5455
1.60275
1.7382
2.08918
2.18631
1.53346
1.47018
1.43936
1.44068
1.45289
1.46399
1.46725
1.47134
1.48748
1.53853
1.70609
1.80726
1.49613
1.47135
1.45472
1.43437
1.40904
1.38054
1.35956
1.35152
1.35998
1.38407
1.46322
1.5306
1.41451
1.4477
1.48192
1.5159
1.54425
1.56428
1.57075
1.55853
1.53076
1.49208
1.45352
1.43382
1.3006
1.334
1.36584
1.39203
1.41046
1.42001
1.41778
1.39883
1.37071
1.34061
1.31848
1.3072
1.21592
1.24571
1.27029
1.2878
1.29933
1.30288
1.29471
1.27463
1.24925
1.21917
1.17738
1.1154
1.15208
1.17662
1.1947
1.20652
1.21325
1.21352
1.20141
1.17961
1.14863
1.0943
0.993559
0.835711
1.44138
1.39182
1.30723
1.24692
1.2158
1.21513
1.23329
1.25531
1.27875
1.3058
1.34894
1.38337
1.29172
1.17753
1.08109
1.05275
1.06823
1.11117
1.15781
1.19108
1.21187
1.22786
1.2492
1.27111
1.05882
0.965461
0.915492
0.926937
0.978693
1.04444
1.10207
1.13763
1.15455
1.16335
1.1742
1.18972
0.727848
0.777339
0.791554
0.842237
0.91488
0.989657
1.04902
1.08371
1.09943
1.10653
1.11495
1.12876
1.41208
1.44525
1.47946
1.51364
1.54227
1.56253
1.56962
1.55744
1.53023
1.49218
1.45436
1.43555
1.29861
1.3321
1.36412
1.39055
1.40915
1.41891
1.41716
1.39855
1.37098
1.34154
1.32003
1.30924
1.21436
1.24436
1.26916
1.28689
1.29861
1.30236
1.29465
1.275
1.25014
1.22055
1.17903
1.11709
1.151
1.17584
1.19413
1.20612
1.21329
1.21358
1.20188
1.18047
1.14985
1.09572
0.994917
0.836801
1.4435
1.39449
1.30996
1.24963
1.21854
1.21804
1.23639
1.25864
1.28222
1.30932
1.35248
1.38666
1.29398
1.17976
1.08307
1.05464
1.07023
1.11347
1.16051
1.1942
1.21518
1.23116
1.25232
1.27394
1.06047
0.966879
0.916712
0.928198
0.980216
1.04638
1.10455
1.14059
1.15775
1.16641
1.17702
1.19218
0.728624
0.778033
0.792241
0.843127
0.916153
0.991421
1.05139
1.08652
1.10245
1.10936
1.11745
1.13094
1.4151
1.448
1.48198
1.51583
1.54415
1.5642
1.57097
1.55845
1.531
1.49266
1.45447
1.43531
1.30111
1.33432
1.36602
1.39215
1.41055
1.42013
1.41806
1.39919
1.37138
1.34162
1.31978
1.30873
1.2165
1.24617
1.27067
1.28815
1.29967
1.30327
1.29525
1.27536
1.25023
1.22035
1.17864
1.11671
1.15286
1.17733
1.19535
1.20714
1.21387
1.21422
1.20226
1.1806
1.14971
1.09536
0.994602
0.836819
1.4431
1.39388
1.30929
1.24893
1.21773
1.217
1.23507
1.25704
1.28049
1.30761
1.3509
1.3853
1.29338
1.17931
1.08277
1.05434
1.06974
1.11262
1.15921
1.19247
1.21327
1.22928
1.25067
1.27253
1.06019
0.966814
0.916768
0.928174
0.979899
1.04563
1.10322
1.13876
1.15567
1.16443
1.17526
1.19072
0.728909
0.778305
0.792529
0.843232
0.915889
0.990667
1.04999
1.08462
1.10031
1.10731
1.11566
1.1294
1.41391
1.44698
1.4811
1.51511
1.54355
1.56366
1.57046
1.55789
1.53032
1.49176
1.45335
1.43391
1.29994
1.33335
1.36522
1.39148
1.40995
1.41955
1.41744
1.39846
1.3705
1.34054
1.31853
1.30728
1.21527
1.24516
1.26981
1.28739
1.29896
1.30256
1.29447
1.27448
1.24926
1.21924
1.17733
1.11507
1.15156
1.17624
1.19439
1.20623
1.21301
1.21336
1.20134
1.17965
1.14873
1.09427
0.993209
0.834967
1.4416
1.39222
1.30753
1.24708
1.2159
1.21534
1.23372
1.25605
1.27971
1.30676
1.34962
1.38431
1.2917
1.17734
1.08065
1.0522
1.06772
1.11089
1.15791
1.19165
1.21271
1.2287
1.24975
1.27162
1.05822
0.964652
0.914544
0.925987
0.977878
1.04391
1.10201
1.13808
1.15533
1.16402
1.17458
1.18992
0.726806
0.776162
0.790366
0.841127
0.913955
0.989025
1.0489
1.08407
1.10008
1.10703
1.11508
1.12868
1.10506
1.12648
1.14105
1.14985
1.15387
1.14954
1.13178
1.09973
1.04433
0.93993
0.724494
0.395374
1.0708
1.09278
1.10698
1.11467
1.11627
1.104
1.07299
1.01759
0.923186
0.757493
0.423352
0.1031
1.0435
1.06875
1.08449
1.09203
1.08946
1.06495
1.01422
0.928816
0.792149
0.577068
0.224448
0.0632609
1.01561
1.04508
1.06312
1.0712
1.06268
1.02497
0.95338
0.838725
0.668376
0.433564
0.168482
0.0605981
0.980141
1.01343
1.03395
1.04312
1.0294
0.980612
0.891678
0.75533
0.568172
0.347192
0.159009
0.0616333
0.932141
0.968195
0.99106
1.00177
0.985127
0.929613
0.830253
0.683286
0.495878
0.301712
0.160261
0.0627084
0.869336
0.906725
0.93157
0.944102
0.927292
0.870352
0.768809
0.622415
0.446389
0.279099
0.162185
0.063837
0.791385
0.828533
0.854802
0.869175
0.854705
0.801344
0.705362
0.568723
0.410337
0.265871
0.162834
0.0620503
0.698493
0.733831
0.760799
0.776699
0.766282
0.720289
0.636138
0.515885
0.377769
0.252374
0.15747
0.0579346
0.588828
0.620653
0.647091
0.663749
0.657991
0.621262
0.554018
0.455083
0.338302
0.229789
0.140865
0.0501288
0.448843
0.475199
0.498568
0.514069
0.512228
0.485701
0.438459
0.368997
0.275233
0.184978
0.105646
0.038475
0.203078
0.21358
0.222152
0.227118
0.228734
0.222042
0.206623
0.183603
0.148846
0.105294
0.0656483
0.027038
0.38141
0.630851
0.70305
0.777844
0.859269
0.935226
0.992977
1.02726
1.0449
1.05585
1.06722
1.08285
0.264945
0.53788
0.636613
0.721588
0.804514
0.877979
0.933393
0.968797
0.991491
1.00898
1.02659
1.04699
0.22732
0.4767
0.580781
0.667318
0.748219
0.818088
0.871435
0.909291
0.937814
0.962838
0.988182
1.01528
0.200971
0.426949
0.528307
0.612494
0.689968
0.756172
0.807976
0.84811
0.882052
0.914246
0.947263
0.981518
0.177938
0.380443
0.476087
0.556365
0.62992
0.692546
0.742853
0.784607
0.822759
0.860674
0.899937
0.940334
0.156069
0.334075
0.423159
0.498845
0.568224
0.627259
0.675786
0.718162
0.758854
0.800385
0.843708
0.888196
0.134291
0.286947
0.369397
0.439931
0.504791
0.560072
0.606371
0.648243
0.68968
0.732572
0.77745
0.823535
0.11248
0.239077
0.31484
0.379357
0.43911
0.490325
0.533902
0.57419
0.614713
0.656875
0.700987
0.746272
0.0901189
0.190959
0.259233
0.316251
0.36993
0.416609
0.456974
0.494748
0.532958
0.572684
0.614102
0.656637
0.0694275
0.142496
0.201407
0.248373
0.294415
0.335618
0.372116
0.406487
0.441246
0.477225
0.514572
0.552126
0.04971
0.0936292
0.136041
0.167916
0.204087
0.238105
0.269362
0.298904
0.328631
0.358942
0.389254
0.419288
0.0214043
0.0357422
0.0545276
0.0665767
0.0834555
0.101581
0.117878
0.132999
0.147833
0.162452
0.176414
0.190327
1.10441
1.12617
1.14093
1.14985
1.15409
1.15006
1.13262
1.10082
1.04555
0.941083
0.725332
0.39574
1.07058
1.09286
1.10723
1.11501
1.11679
1.10479
1.07397
1.01864
0.924169
0.758237
0.423726
0.103105
1.04355
1.06908
1.08494
1.09255
1.09014
1.06579
1.0151
0.929629
0.792779
0.577408
0.22455
0.0631858
1.01581
1.04549
1.06362
1.07174
1.06332
1.02566
0.954016
0.83921
0.668638
0.433578
0.168384
0.0605012
0.980291
1.01374
1.03432
1.04352
1.02984
0.981019
0.891978
0.755459
0.568112
0.346991
0.158812
0.0615281
0.932128
0.96831
0.991206
1.00193
0.985269
0.929681
0.830201
0.683094
0.495576
0.301383
0.16001
0.0625982
0.869063
0.906559
0.931431
0.943967
0.927112
0.870086
0.768441
0.621967
0.445924
0.278702
0.161912
0.0637205
0.79086
0.828093
0.854393
0.868759
0.854236
0.800799
0.70475
0.568099
0.409775
0.265444
0.162556
0.0619296
0.697763
0.733176
0.760176
0.77607
0.765603
0.719554
0.635374
0.515166
0.377163
0.25194
0.157193
0.0578265
0.587972
0.619895
0.646367
0.663018
0.657222
0.620453
0.55322
0.454358
0.337703
0.229371
0.140603
0.0500358
0.448021
0.474487
0.497888
0.513385
0.511516
0.484965
0.437756
0.36837
0.274691
0.184613
0.105429
0.0384072
0.202568
0.213145
0.221741
0.226741
0.228423
0.221719
0.206307
0.183314
0.1486
0.105122
0.0655438
0.0269983
0.381491
0.631087
0.703444
0.778551
0.860425
0.936905
0.995244
1.02993
1.04768
1.05839
1.06948
1.08478
0.264854
0.537947
0.63689
0.722221
0.805619
0.879608
0.935554
0.971271
0.99397
1.01129
1.02859
1.04872
0.227247
0.476745
0.581034
0.667932
0.749299
0.819666
0.873464
0.911564
0.940085
0.964926
0.990017
1.01683
0.200924
0.427021
0.528571
0.613108
0.691028
0.757695
0.809889
0.850226
0.884159
0.91619
0.948952
0.982966
0.177919
0.380546
0.476368
0.556978
0.630956
0.694009
0.744663
0.786598
0.824746
0.862513
0.901567
0.941717
0.156061
0.334197
0.423448
0.499449
0.569225
0.628656
0.677499
0.720047
0.76075
0.80217
0.845297
0.88957
0.134295
0.287072
0.36968
0.440508
0.505742
0.561394
0.607986
0.650027
0.691497
0.734307
0.779038
0.824916
0.112491
0.239187
0.3151
0.379888
0.439994
0.491554
0.535406
0.575864
0.616439
0.658557
0.702548
0.747665
0.0901316
0.191044
0.259451
0.316712
0.370719
0.417721
0.458343
0.496285
0.534561
0.57427
0.615603
0.657999
0.069427
0.142552
0.201568
0.248734
0.295074
0.336571
0.373307
0.407838
0.442671
0.478656
0.515937
0.553361
0.049704
0.0936477
0.136119
0.168129
0.204561
0.238832
0.270297
0.299979
0.329775
0.360085
0.390324
0.420284
0.0214029
0.0357341
0.054539
0.0666421
0.0836652
0.101922
0.118322
0.133506
0.148376
0.162998
0.176937
0.190819
1.10606
1.12746
1.14199
1.15076
1.15479
1.15051
1.13282
1.10077
1.04526
0.940719
0.725195
0.395975
1.07204
1.094
1.10816
1.11583
1.1174
1.10511
1.07405
1.01853
0.923934
0.758065
0.423874
0.103277
1.04488
1.07011
1.08579
1.09328
1.09061
1.06602
1.01517
0.929604
0.792757
0.577562
0.224976
0.0633263
1.01703
1.04644
1.06438
1.07238
1.06371
1.02588
0.954154
0.839357
0.668891
0.434054
0.168793
0.0606293
0.981463
1.01466
1.03504
1.04412
1.0302
0.981283
0.892223
0.75579
0.56858
0.347571
0.159196
0.0616537
0.933279
0.969228
0.991937
1.00253
0.98565
0.930008
0.830555
0.683558
0.496154
0.301955
0.16035
0.0627158
0.870228
0.907506
0.932209
0.944592
0.927545
0.870477
0.76888
0.622497
0.446521
0.279211
0.162196
0.0638269
0.792032
0.829059
0.855223
0.869427
0.854728
0.801243
0.705243
0.568635
0.410338
0.265876
0.162807
0.0620168
0.698913
0.734146
0.76103
0.776762
0.766151
0.720018
0.635906
0.515654
0.377675
0.252301
0.157394
0.0578992
0.589036
0.620807
0.647178
0.663691
0.657764
0.620931
0.553713
0.454796
0.33814
0.229676
0.140779
0.0500884
0.448893
0.475249
0.498563
0.513954
0.511982
0.48539
0.438165
0.368719
0.275057
0.184864
0.105569
0.0384413
0.20301
0.213542
0.222099
0.227037
0.228621
0.221908
0.206474
0.183456
0.148722
0.105206
0.0655863
0.0270089
0.381945
0.631539
0.703827
0.77868
0.86014
0.936104
0.9938
1.02801
1.04555
1.05636
1.06764
1.0832
0.265226
0.538424
0.637271
0.722315
0.805278
0.878744
0.934083
0.969374
0.991917
1.00928
1.02678
1.04711
0.227544
0.477173
0.581363
0.667963
0.748891
0.818738
0.871997
0.909715
0.938081
0.962964
0.988206
1.01523
0.201173
0.427379
0.528832
0.613071
0.690562
0.756728
0.808432
0.848417
0.8822
0.914256
0.947178
0.981369
0.178131
0.380834
0.476561
0.556881
0.630445
0.693024
0.743225
0.784829
0.822827
0.860613
0.899793
0.940141
0.156244
0.334427
0.423585
0.499306
0.568687
0.627672
0.676093
0.718326
0.758875
0.800292
0.843548
0.888004
0.134451
0.287257
0.369775
0.440338
0.505198
0.56043
0.606629
0.648367
0.689679
0.732473
0.777303
0.823375
0.112614
0.23934
0.315168
0.379712
0.439464
0.490631
0.53412
0.574288
0.614705
0.656788
0.700871
0.74616
0.0902345
0.191173
0.25951
0.316549
0.370229
0.416863
0.457156
0.494826
0.532951
0.572616
0.614023
0.656577
0.0695183
0.142658
0.201626
0.248611
0.294647
0.335816
0.372255
0.406547
0.441241
0.477177
0.514527
0.552116
0.0497771
0.093739
0.136192
0.168078
0.204238
0.238233
0.269448
0.298939
0.328623
0.358919
0.389249
0.41931
0.0214335
0.0357883
0.0545907
0.0666427
0.0835132
0.101637
0.117919
0.133023
0.147846
0.162462
0.176433
0.19036
1.10468
1.12625
1.14088
1.14971
1.15377
1.14951
1.13181
1.09979
1.04429
0.939644
0.723857
0.394705
1.07062
1.09272
1.10696
1.11467
1.11628
1.10403
1.07299
1.01749
0.922869
0.756885
0.422666
0.102884
1.04343
1.0688
1.08455
1.09209
1.08949
1.06491
1.01405
0.928449
0.791516
0.576227
0.22393
0.0631276
1.0156
1.04516
1.06319
1.07124
1.06263
1.02477
0.952987
0.838087
0.667501
0.432656
0.168084
0.060475
0.980058
1.01343
1.03392
1.04306
1.0292
0.980219
0.891056
0.754475
0.56718
0.346357
0.158645
0.0615085
0.93192
0.968059
0.990903
1.00157
0.984758
0.929035
0.829448
0.682303
0.494881
0.300979
0.159909
0.062584
0.86891
0.906398
0.931244
0.943737
0.926764
0.869624
0.767885
0.621388
0.445447
0.278458
0.161852
0.0637109
0.790777
0.828027
0.854323
0.868663
0.854053
0.800521
0.704386
0.567712
0.409471
0.265304
0.162512
0.061929
0.697749
0.733195
0.760204
0.776089
0.765558
0.719431
0.635169
0.514934
0.376981
0.251863
0.157164
0.057822
0.588011
0.619971
0.64646
0.66311
0.657269
0.620435
0.553131
0.454232
0.337595
0.229326
0.14058
0.0500305
0.448085
0.474584
0.498004
0.513503
0.511599
0.484998
0.43774
0.368309
0.274619
0.184581
0.105407
0.0383995
0.202617
0.213206
0.221805
0.226803
0.228477
0.221754
0.206324
0.183314
0.148577
0.105105
0.0655301
0.026991
0.380542
0.629617
0.701821
0.776717
0.858343
0.934596
0.992839
1.02756
1.04539
1.05612
1.06713
1.08247
0.264282
0.536768
0.635458
0.720523
0.803648
0.877405
0.933253
0.968992
0.991749
1.00908
1.02626
1.04631
0.226792
0.475743
0.579746
0.666353
0.747442
0.817591
0.871284
0.90939
0.937954
0.962791
0.987713
1.01436
0.200534
0.426139
0.527402
0.611644
0.689291
0.755751
0.807842
0.848169
0.882131
0.91415
0.946726
0.980505
0.177572
0.379759
0.475306
0.555629
0.629343
0.692202
0.742752
0.784665
0.82283
0.860592
0.899481
0.939398
0.155756
0.333497
0.422489
0.498215
0.567741
0.62699
0.67573
0.718243
0.758954
0.800389
0.843404
0.887495
0.134025
0.286457
0.368826
0.439395
0.504392
0.559872
0.606359
0.648355
0.689827
0.732681
0.777375
0.823163
0.112258
0.23866
0.314353
0.378901
0.438784
0.49018
0.533925
0.574329
0.614905
0.657094
0.701126
0.746264
0.0899369
0.190608
0.258817
0.315861
0.369657
0.416503
0.457012
0.4949
0.533175
0.572982
0.614418
0.65696
0.0692764
0.142211
0.201058
0.248034
0.294182
0.335521
0.372147
0.406621
0.441465
0.477542
0.514968
0.552674
0.049596
0.0934118
0.135756
0.167618
0.203882
0.237994
0.269347
0.298983
0.328811
0.359232
0.389673
0.419859
0.0213609
0.0356445
0.0543916
0.0664306
0.0833774
0.10156
0.117922
0.133119
0.148017
0.162712
0.176741
0.19076
)
;

boundaryField
{
    rotor
    {
        type            kqRWallFunction;
        value           nonuniform List<scalar> 
192
(
0.0732353
0.0936784
0.107894
0.104919
0.122537
0.308398
0.602044
0.737617
0.800656
0.847896
0.870362
0.881839
0.876374
0.870451
0.856808
0.833965
0.799703
0.757972
0.704678
0.641656
0.561826
0.466509
0.381532
0.314506
0.0720299
0.0921574
0.106519
0.103659
0.121011
0.303965
0.598168
0.734426
0.797683
0.845054
0.867694
0.879373
0.874098
0.868376
0.85493
0.832478
0.798431
0.757028
0.703914
0.641118
0.561446
0.466382
0.381385
0.314409
0.0720439
0.0921782
0.106442
0.103609
0.121264
0.306211
0.600762
0.736965
0.800269
0.847651
0.870232
0.881848
0.876461
0.870631
0.85707
0.834369
0.800162
0.758505
0.70521
0.642177
0.562301
0.466967
0.381852
0.31478
0.0721371
0.0923013
0.106713
0.103861
0.121246
0.304567
0.598668
0.734754
0.797921
0.845188
0.86771
0.879343
0.874011
0.868242
0.854767
0.832229
0.798169
0.756727
0.703631
0.640848
0.561211
0.466147
0.381251
0.314298
0.0732353
0.158834
0.233673
0.283023
0.311579
0.305023
0.283261
0.260978
0.261965
0.288847
0.357548
1.15962
0.314298
0.655957
0.847123
1.00566
1.1207
1.23433
1.33167
1.44552
1.5736
1.70198
1.85451
2.07
0.0720299
0.157637
0.232072
0.28141
0.310032
0.303944
0.282423
0.260595
0.261879
0.288839
0.357294
1.15659
0.314506
0.656295
0.847475
1.00598
1.12096
1.23453
1.33185
1.44566
1.57366
1.70194
1.85423
2.06945
0.0720439
0.157765
0.2325
0.282017
0.310724
0.304559
0.282987
0.261054
0.262325
0.289372
0.358006
1.15859
0.314409
0.656277
0.847658
1.00639
1.1216
1.2354
1.33288
1.44687
1.57509
1.70364
1.85636
2.07218
0.0721371
0.157854
0.232203
0.281454
0.309953
0.303743
0.28216
0.260281
0.261651
0.288791
0.357586
1.15807
0.31478
0.656945
0.848443
1.00724
1.12248
1.23629
1.33382
1.44786
1.57611
1.70461
1.85713
2.07264
)
;
    }
    stator
    {
        type            kqRWallFunction;
        value           nonuniform List<scalar> 
192
(
0.203078
0.21358
0.222152
0.227118
0.228734
0.222042
0.206623
0.183603
0.148846
0.105294
0.0656483
0.027038
0.0214043
0.0357422
0.0545276
0.0665767
0.0834555
0.101581
0.117878
0.132999
0.147833
0.162452
0.176414
0.190327
0.202568
0.213145
0.221741
0.226741
0.228423
0.221719
0.206307
0.183314
0.1486
0.105122
0.0655438
0.0269983
0.0214029
0.0357341
0.054539
0.0666421
0.0836652
0.101922
0.118322
0.133506
0.148376
0.162998
0.176937
0.190819
0.20301
0.213542
0.222099
0.227037
0.228621
0.221908
0.206474
0.183456
0.148722
0.105206
0.0655863
0.0270089
0.0214335
0.0357883
0.0545907
0.0666427
0.0835132
0.101637
0.117919
0.133023
0.147846
0.162462
0.176433
0.19036
0.202617
0.213206
0.221805
0.226803
0.228477
0.221754
0.206324
0.183314
0.148577
0.105105
0.0655301
0.026991
0.0213609
0.0356445
0.0543916
0.0664306
0.0833774
0.10156
0.117922
0.133119
0.148017
0.162712
0.176741
0.19076
0.38141
0.264945
0.22732
0.200971
0.177938
0.156069
0.134291
0.11248
0.0901189
0.0694275
0.04971
0.0214043
0.395374
0.1031
0.0632609
0.0605981
0.0616333
0.0627084
0.063837
0.0620503
0.0579346
0.0501288
0.038475
0.027038
0.381491
0.264854
0.227247
0.200924
0.177919
0.156061
0.134295
0.112491
0.0901316
0.069427
0.049704
0.0214029
0.39574
0.103105
0.0631858
0.0605012
0.0615281
0.0625982
0.0637205
0.0619296
0.0578265
0.0500358
0.0384072
0.0269983
0.381945
0.265226
0.227544
0.201173
0.178131
0.156244
0.134451
0.112614
0.0902345
0.0695183
0.0497771
0.0214335
0.395975
0.103277
0.0633263
0.0606293
0.0616537
0.0627158
0.0638269
0.0620168
0.0578992
0.0500884
0.0384413