/*--------------------------------*- C++ -*----------------------------------*\
| =========                 |                                                 |
| \\      /  F ield         | OpenFOAM: The Open Source CFD Toolbox           |
|  \\    /   O peration     | Version:  v1912                                 |
|   \\  /    A nd           | Website:  www.openfoam.com                      |
|    \\/     M anipulation  |                                                 |
\*---------------------------------------------------------------------------*/
FoamFile
{
    version     2.0;
    format      ascii;
    class       volScalarField;
    location    "150";
    object      nut;
}
// * * * * * * * * * * * * * * * * * * * * * * * * * * * * * * * * * * * * * //

dimensions      [0 2 -1 0 0 0 0];


internalField   nonuniform List<scalar> 
3072
(
4.16711e-05
8.67843e-05
9.32625e-05
9.19505e-05
9.89408e-05
0.000155649
0.000219413
0.000243441
0.000253794
0.000261232
0.000264668
0.000266398
6.89092e-05
0.000181894
0.000215213
0.000164383
0.000186551
0.000251044
0.000364608
0.000503556
0.000699804
0.000915787
0.00112542
0.00132574
9.20724e-05
0.000343494
0.000322837
0.000300412
0.000388691
0.000585937
0.000860407
0.00120865
0.00156957
0.00190828
0.0022075
0.00243509
0.000110897
0.000421092
0.000446522
0.000473718
0.000682729
0.000990667
0.00140589
0.00183954
0.00226205
0.00264019
0.00296729
0.00320898
0.00012633
0.000533449
0.000599855
0.000690066
0.000975605
0.00136729
0.00182963
0.00229801
0.0027366
0.00312926
0.00346223
0.00371702
0.000134901
0.000596072
0.000735562
0.000889885
0.00121473
0.00163414
0.00210464
0.00257437
0.00300632
0.00339432
0.00372554
0.00398932
0.000139717
0.000651586
0.000842094
0.00104879
0.00138223
0.00179322
0.00224826
0.00270459
0.00312809
0.0035059
0.0038287
0.00409162
0.000143931
0.000712772
0.00096127
0.00116553
0.00147861
0.00187175
0.00230503
0.00272503
0.00311416
0.00346307
0.0037681
0.00402816
0.000154061
0.000808003
0.00107335
0.00132981
0.00161316
0.00193375
0.00229545
0.00263817
0.00298496
0.00331492
0.00360475
0.00385456
0.000171952
0.000905926
0.00130402
0.00159875
0.00182413
0.00204033
0.00229765
0.00257658
0.00284687
0.00310161
0.00336205
0.00359947
0.000202466
0.000932292
0.00151609
0.0018795
0.00203108
0.00219252
0.00232579
0.0024929
0.00269848
0.00291689
0.00311092
0.00330176
0.00038318
0.000908962
0.00162091
0.00198933
0.00216169
0.0022843
0.00235145
0.00242982
0.00253734
0.0026846
0.00286668
0.00302575
0.000265527
0.000264579
0.000262416
0.00025882
0.000253366
0.000246599
0.000237709
0.000226805
0.000212195
0.000193368
0.000174707
8.6555e-05
0.00148397
0.00156807
0.00160409
0.00154586
0.00145489
0.00132049
0.00114539
0.000950906
0.000742395
0.00047943
0.000240748
0.000139875
0.00259455
0.0026912
0.00270906
0.00264996
0.00251708
0.00233148
0.00206488
0.00172672
0.00132565
0.000874292
0.000394507
0.000175752
0.00339782
0.00351594
0.00356028
0.00352576
0.00339821
0.0032136
0.00292496
0.0025098
0.00198758
0.00136803
0.000663446
0.000209697
0.00392487
0.00406272
0.00413382
0.00413398
0.00404496
0.00389244
0.00363766
0.00321553
0.00261817
0.00186078
0.000953733
0.000240586
0.00420611
0.00436064
0.00445554
0.00448874
0.00444674
0.00434098
0.0041351
0.00377544
0.00321328
0.00237226
0.00130051
0.000272613
0.00430341
0.00446225
0.00456856
0.00462631
0.00463286
0.00458564
0.00445349
0.00418074
0.00370625
0.00287685
0.00168283
0.000304095
0.00423792
0.00440462
0.00451944
0.00459097
0.00462981
0.00463389
0.0045857
0.00443627
0.00407469
0.00332743
0.00203844
0.000338642
0.00406049
0.00422915
0.0043506
0.0044252
0.00448262
0.00452536
0.00453846
0.00451338
0.004333
0.00371743
0.00234136
0.000376042
0.00379953
0.00396636
0.00408937
0.00416368
0.00423314
0.00430093
0.00435036
0.00442467
0.00443152
0.00402865
0.00271095
0.00041477
0.00348577
0.00364296
0.00375766
0.00383757
0.00392144
0.00399306
0.00406531
0.00421215
0.00437673
0.00427159
0.00317515
0.000457716
0.00317045
0.00329775
0.00340308
0.00349162
0.00360175
0.00367761
0.00377969
0.00396236
0.00421101
0.00438588
0.00370928
0.000510056
4.15512e-05
8.61854e-05
9.27131e-05
9.14294e-05
9.83452e-05
0.000154426
0.000218664
0.000242935
0.000253352
0.000260823
0.000264294
0.00026606
6.86734e-05
0.000181159
0.000214241
0.000163435
0.000186071
0.00025025
0.000362656
0.000500774
0.000695892
0.000910562
0.00112434
0.00132108
9.17696e-05
0.000342565
0.000322063
0.000299351
0.000386583
0.00058241
0.000855369
0.00120315
0.00156395
0.00190252
0.0022022
0.00242924
0.000110567
0.000419931
0.000445073
0.000471698
0.000679398
0.0009858
0.00139997
0.00183324
0.00225586
0.00263369
0.00296131
0.00320313
0.000126002
0.000532185
0.000598212
0.000687656
0.000971913
0.00136214
0.00182391
0.00229209
0.0027309
0.00312349
0.00345721
0.00371256
0.000134634
0.000595566
0.000733988
0.000887527
0.00121132
0.00162984
0.00210012
0.00257008
0.00300217
0.00339024
0.00372226
0.00398676
0.000139476
0.000651203
0.000840888
0.00104723
0.00137998
0.00179053
0.00224591
0.00270151
0.003125
0.00350307
0.00382659
0.00409059
0.000143859
0.000713133
0.000960439
0.00116437
0.00147688
0.00186976
0.00230391
0.00272421
0.00311325
0.00346241
0.00376789
0.00402853
0.000153986
0.000808534
0.00107406
0.00133063
0.00161374
0.00193412
0.0022959
0.00263921
0.00298573
0.00331601
0.00360624
0.00385655
0.000171949
0.0009073
0.00130557
0.00160121
0.00182675
0.00204262
0.00229981
0.00257866
0.00284979
0.00310417
0.00336479
0.00360248
0.000202374
0.000932366
0.00151625
0.00187991
0.00203193
0.00219465
0.00232834
0.00249551
0.00270107
0.00292044
0.00311487
0.00330599
0.0003827
0.000907426
0.00161912
0.00198884
0.00216079
0.00228463
0.00235263
0.00243176
0.00253975
0.00268733
0.00287004
0.00302975
0.000265215
0.000264298
0.000262167
0.000258623
0.000253196
0.000246471
0.000237601
0.00022673
0.00021214
0.000193353
0.000174685
8.65478e-05
0.00148008
0.00156478
0.00160133
0.0015434
0.0014529
0.00131902
0.0011445
0.000950461
0.000742166
0.000479204
0.000240689
0.000139883
0.00258871
0.00268617
0.00270464
0.00264614
0.00251369
0.00232897
0.00206294
0.00172546
0.00132508
0.000874191
0.000394502
0.000175784
0.00339192
0.00351084
0.00355602
0.00352247
0.00339538
0.00321183
0.002923
0.00250853
0.00198708
0.00136808
0.00066365
0.000209753
0.00392045
0.0040588
0.00413059
0.00413153
0.00404288
0.00389179
0.00363707
0.00321495
0.00261804
0.0018611
0.000954032
0.000240666
0.0042038
0.00435855
0.00445409
0.00448802
0.00444647
0.00434196
0.00413616
0.00377671
0.00321444
0.00237318
0.00130103
0.000272712
0.00430297
0.00446228
0.00456931
0.00462789
0.00463513
0.00458863
0.00445665
0.00418387
0.00370908
0.00287862
0.0016835
0.000304211
0.00423903
0.00440649
0.00452229
0.00459472
0.00463441
0.00463915
0.00459134
0.00444184
0.0040792
0.00333032
0.00203971
0.000338779
0.00406334
0.00423276
0.00435519
0.00443076
0.0044892
0.00453254
0.00454616
0.00452124
0.00433977
0.00372201
0.00234293
0.000376212
0.00380351
0.00397117
0.00409513
0.00417057
0.00424156
0.00430954
0.00435972
0.00443426
0.00444035
0.0040344
0.0027129
0.000414979
0.00349023
0.00364816
0.00376393
0.00384519
0.00393168
0.00400322
0.00407573
0.0042226
0.00438709
0.00427919
0.00317777
0.000457978
0.00317518
0.00330319
0.00340942
0.00349954
0.00361148
0.00368702
0.00379069
0.00397408
0.00422216
0.0043954
0.0037129
0.000510402
4.15771e-05
8.62125e-05
9.2713e-05
9.14135e-05
9.84478e-05
0.000155026
0.000219176
0.000243333
0.000253744
0.000261198
0.000264656
0.000266413
6.87268e-05
0.000181158
0.000213849
0.000163236
0.000186169
0.000250691
0.000363926
0.000502815
0.000698082
0.000913044
0.00112658
0.00132459
9.18636e-05
0.000342913
0.000322484
0.000299843
0.000387895
0.000584055
0.000858312
0.00120685
0.00156794
0.00190695
0.00220709
0.00243482
0.00011068
0.000420518
0.000445769
0.000472777
0.000681131
0.000988266
0.00140369
0.00183785
0.00226108
0.00263974
0.00296777
0.00320999
0.000126123
0.000532878
0.00059911
0.000688833
0.000973712
0.0013651
0.00182801
0.00229718
0.00273682
0.0031303
0.00346445
0.00372004
0.000134754
0.000596275
0.00073496
0.00088877
0.00121326
0.00163291
0.00210427
0.00257526
0.00300824
0.00339711
0.00372955
0.00399431
0.000139605
0.000651832
0.000841851
0.00104842
0.00138181
0.00179338
0.00224979
0.00270657
0.00313095
0.00350972
0.00383365
0.00409779
0.000143977
0.000713727
0.000961416
0.00116552
0.00147862
0.00187245
0.0023076
0.00272883
0.00311874
0.00346853
0.00377448
0.00403545
0.000154123
0.000809246
0.00107482
0.00133145
0.00161493
0.00193612
0.00229903
0.00264309
0.00299056
0.00332139
0.0036121
0.00386282
0.000172112
0.000908047
0.00130647
0.00160203
0.00182766
0.002044
0.00230216
0.00258191
0.00285319
0.00310863
0.00336992
0.0036083
0.000202585
0.000933563
0.00151767
0.00188133
0.00203331
0.00219592
0.00233003
0.00249793
0.00270431
0.00292359
0.00311861
0.0033106
0.00038305
0.000908726
0.00162092
0.00199022
0.00216257
0.00228613
0.00235421
0.00243357
0.00254209
0.00269047
0.00287327
0.00303354
0.000265552
0.000264621
0.000262473
0.000258898
0.000253454
0.000246699
0.00023781
0.000226908
0.000212294
0.000193469
0.000174785
8.65956e-05
0.00148329
0.00156801
0.00160442
0.00154638
0.00145561
0.00132138
0.00114634
0.000951783
0.000743059
0.000479756
0.000240882
0.000139949
0.00259444
0.00269164
0.00270978
0.00265086
0.00251812
0.00233284
0.00206636
0.00172811
0.00132684
0.000875122
0.000394842
0.000175858
0.00339899
0.00351752
0.00356215
0.00352789
0.00340047
0.00321621
0.00292733
0.00251212
0.00198958
0.00136945
0.000664097
0.000209834
0.00392807
0.00406611
0.00413747
0.00413791
0.00404898
0.00389681
0.00364166
0.00321905
0.00262115
0.0018629
0.000954693
0.000240754
0.00421139
0.00436586
0.00446099
0.00449441
0.00445246
0.00434699
0.0041409
0.00378073
0.00321754
0.00237529
0.00130191
0.000272811
0.00431014
0.00446925
0.00457584
0.00463389
0.0046406
0.00459345
0.00446094
0.00418755
0.00371211
0.00288085
0.00168475
0.000304323
0.0042459
0.00441307
0.00452832
0.00460021
0.00463932
0.00464351
0.00459513
0.00444501
0.00408192
0.00333254
0.00204081
0.000338902
0.00406958
0.00423881
0.00436073
0.00443575
0.00449354
0.00453646
0.00454956
0.00452397
0.0043421
0.00372394
0.0023442
0.000376338
0.00380937
0.00397684
0.00410032
0.00417508
0.00424501
0.004313
0.00436268
0.00443674
0.00444239
0.00403644
0.00271427
0.000415099
0.00349592
0.00365387
0.00376887
0.00384932
0.0039338
0.00400565
0.00407839
0.00422537
0.00438914
0.00428101
0.00317909
0.000458077
0.00317939
0.00330755
0.0034136
0.00350302
0.00361389
0.0036899
0.00379238
0.00397554
0.00422385
0.00439678
0.00371416
0.000510454
4.15832e-05
8.62548e-05
9.27973e-05
9.15166e-05
9.84399e-05
0.000154594
0.000218752
0.000242987
0.000253387
0.000260836
0.000264277
0.000266049
6.87222e-05
0.00018147
0.000214711
0.000163808
0.00018625
0.000250165
0.00036279
0.000501376
0.000696868
0.000911257
0.00112338
0.00132163
9.18052e-05
0.000342835
0.000322511
0.000299715
0.000386245
0.000582421
0.000855531
0.00120365
0.00156422
0.00190245
0.0022015
0.00242886
0.000110585
0.000419836
0.000445179
0.000471008
0.000678465
0.00098549
0.0013998
0.0018331
0.00225549
0.00263324
0.00296048
0.00320215
0.000125999
0.000531499
0.000597642
0.000686278
0.00097091
0.00136146
0.0018233
0.0022914
0.00273001
0.00312259
0.00345601
0.00371097
0.000134594
0.000594455
0.000732849
0.000885644
0.00120983
0.00162858
0.00209887
0.00256861
0.0030005
0.00338849
0.00372029
0.00398452
0.000139417
0.000649916
0.000839442
0.00104491
0.00137784
0.00178845
0.0022437
0.00269942
0.00312278
0.00350067
0.0038239
0.00408733
0.000143794
0.000711814
0.000958612
0.00116161
0.00147412
0.00186711
0.00230104
0.00272114
0.00311004
0.00345897
0.00376421
0.00402453
0.000153922
0.000807377
0.00107178
0.00132737
0.00161018
0.00193048
0.00229235
0.00263512
0.00298156
0.00331162
0.00360165
0.0038517
0.000171942
0.000906548
0.00130374
0.00159829
0.00182317
0.00203843
0.00229558
0.00257418
0.00284474
0.00309901
0.0033595
0.003597
0.000202463
0.000932706
0.00151618
0.00187933
0.00203054
0.00219156
0.00232452
0.00249117
0.00269632
0.00291516
0.00310928
0.00330018
0.000382965
0.000908356
0.00162037
0.00198912
0.00216091
0.00228349
0.00235042
0.00242858
0.00253569
0.00268265
0.00286508
0.00302437
0.000265194
0.00026427
0.000262132
0.000258576
0.000253148
0.000246416
0.000237549
0.000226677
0.000212091
0.000193301
0.000174651
8.65306e-05
0.00147994
0.0015644
0.00160073
0.0015427
0.0014521
0.00131816
0.00114368
0.000949744
0.000741652
0.000478965
0.000240609
0.000139847
0.0025881
0.00268526
0.00270355
0.00264494
0.00251244
0.00232761
0.00206162
0.00172431
0.00132415
0.000873555
0.000394249
0.000175725
0.00339076
0.00350933
0.00355426
0.00352049
0.00339328
0.00320959
0.00292093
0.0025066
0.00198549
0.00136699
0.000663156
0.000209674
0.00391853
0.00405643
0.00412785
0.00412848
0.00403966
0.00388839
0.0036339
0.00321215
0.00261572
0.0018595
0.000953295
0.000240566
0.00420108
0.00435527
0.00445033
0.00448389
0.00444212
0.00433741
0.00413176
0.00377271
0.00321126
0.00237097
0.0013
0.000272593
0.00429916
0.00445798
0.00456451
0.00462264
0.00462956
0.00458291
0.0044511
0.00417881
0.00370482
0.00287577
0.00168218
0.000304075
0.00423455
0.00440139
0.00451658
0.0045885
0.00462779
0.0046323
0.00458453
0.0044355
0.00407396
0.0033267
0.00203812
0.000338624
0.00405802
0.0042269
0.00434876
0.00442382
0.00448179
0.0045248
0.00453833
0.00451369
0.00433329
0.00371745
0.00234104
0.000376035
0.00379764
0.00396481
0.00408829
0.00416317
0.00423364
0.00430127
0.00435118
0.00442579
0.00443268
0.00402897
0.00271071
0.000414777
0.00348428
0.00364184
0.00375703
0.00383763
0.00392352
0.0039947
0.00406687
0.00421355
0.00437849
0.00427267
0.00317513
0.000457749
0.00316942
0.00329702
0.00340269
0.00349206
0.00360334
0.00367855
0.00378188
0.00396497
0.00421322
0.00438778
0.0037096
0.000510132
0.00248271
0.00240499
0.00243023
0.00246087
0.00248222
0.00249588
0.0025072
0.00250554
0.00251648
0.00256766
0.00265269
0.00276824
0.00360555
0.00332596
0.00310967
0.00297914
0.00282448
0.00272168
0.00267591
0.002597
0.00257478
0.00257245
0.00258609
0.00262732
0.00421657
0.00395257
0.00369138
0.00347499
0.00324609
0.00305113
0.00290061
0.00278024
0.0027176
0.00262021
0.0025883
0.00258532
0.00431264
0.00414724
0.00395173
0.00375075
0.00352326
0.00329878
0.00309725
0.00290383
0.00280291
0.00272939
0.0026436
0.0025572
0.00288577
0.00299468
0.00309041
0.0031936
0.00333222
0.00342371
0.00356961
0.00377463
0.00403518
0.00444415
0.0049966
0.00259008
0.00269184
0.00277097
0.00286237
0.00299516
0.00313006
0.00328688
0.003465
0.0036665
0.00389381
0.00427448
0.00505773
0.00398527
0.0026086
0.00267117
0.00277266
0.00292198
0.00308116
0.00326365
0.00346202
0.00367827
0.00389304
0.00414198
0.00471067
0.00449066
0.00260137
0.00272263
0.00285874
0.00300953
0.00320145
0.00342948
0.00366056
0.00386838
0.00403785
0.00416291
0.00442117
0.00442905
0.00247665
0.00239974
0.00242561
0.00245719
0.00247909
0.00249408
0.00250642
0.00250597
0.00251781
0.0025698
0.00265556
0.00277171
0.00359731
0.00331846
0.00310327
0.00297359
0.00282104
0.00271859
0.00267373
0.00259668
0.00257436
0.00257339
0.00258794
0.00263009
0.00420701
0.00394378
0.0036839
0.00346846
0.00324129
0.00304708
0.00289777
0.00277752
0.00271645
0.00262094
0.0025894
0.00258739
0.00430249
0.00413797
0.0039437
0.00374394
0.00351814
0.00329436
0.00309907
0.00289951
0.00280024
0.00272797
0.00264462
0.00255891
0.00288992
0.00299961
0.00309642
0.00320183
0.00334077
0.0034327
0.00358064
0.00378631
0.00404674
0.00445493
0.00500408
0.00259392
0.00269535
0.00277525
0.00286801
0.00300277
0.00313771
0.00329613
0.00347528
0.00367732
0.00390485
0.0042857
0.00506771
0.00399216
0.0026114
0.00267498
0.00277839
0.00292791
0.00308815
0.00327248
0.00347139
0.00368803
0.00390302
0.00415262
0.0047219
0.00450002
0.0026041
0.00272699
0.00286328
0.00301457
0.00320738
0.00343739
0.00366906
0.00387782
0.00404769
0.0041734
0.00443243
0.00443923
0.00247977
0.0024029
0.0024286
0.00245978
0.00248143
0.00249596
0.00250813
0.00250748
0.00251957
0.00257191
0.00265826
0.00277489
0.00360281
0.00332377
0.00310779
0.00297731
0.0028233
0.00272093
0.0026757
0.00259799
0.00257627
0.00257502
0.00258975
0.00263255
0.00421445
0.0039502
0.00368915
0.00347275
0.00324421
0.00304972
0.00289974
0.00277972
0.00271806
0.00262197
0.00259103
0.00258889
0.00431097
0.00414498
0.00394929
0.00374835
0.00352115
0.00329697
0.00310086
0.00290104
0.00280215
0.00272967
0.00264537
0.00255976
0.00289347
0.0030033
0.00309994
0.00320429
0.00334312
0.00343509
0.00358146
0.0037865
0.00404719
0.0044556
0.00500487
0.00259258
0.00269807
0.00277816
0.00287074
0.00300463
0.00313988
0.00329746
0.00347561
0.00367692
0.0039044
0.00428532
0.00506782
0.0039906
0.00261323
0.00267699
0.00277987
0.00292945
0.0030897
0.00327279
0.00347131
0.0036875
0.00390192
0.00415133
0.00472062
0.00449804
0.00260512
0.00272792
0.00286434
0.00301571
0.0032083
0.00343734
0.00366842
0.003876
0.00404514
0.00417037
0.00442917
0.0044361
0.00247858
0.00240182
0.00242739
0.00245848
0.00248001
0.00249419
0.00250571
0.00250428
0.00251479
0.00256607
0.00265112
0.00276682
0.00360092
0.00332194
0.00310596
0.00297554
0.00282152
0.00271907
0.00267364
0.00259539
0.00257348
0.00257121
0.00258485
0.00262595
0.00421219
0.00394798
0.00368699
0.00347072
0.00324221
0.00304776
0.00289788
0.0027777
0.00271567
0.00261883
0.00258713
0.00258428
0.00430804
0.00414235
0.0039469
0.00374621
0.00351914
0.00329505
0.00309902
0.00289906
0.00280025
0.00272746
0.00264204
0.00255616
0.00288464
0.00299386
0.00309005
0.00319458
0.00333319
0.00342466
0.00357218
0.00377773
0.00403806
0.00444669
0.00499829
0.00259224
0.00269071
0.00277009
0.00286209
0.00299605
0.00313063
0.00328841
0.0034673
0.00366937
0.00389691
0.00427791
0.00506133
0.0039898
0.00260759
0.00267045
0.00277288
0.00292213
0.00308157
0.00326525
0.00346394
0.00368063
0.00389642
0.00414617
0.004716
0.00449713
0.0026007
0.0027225
0.0028584
0.00300913
0.00320132
0.00343052
0.00366249
0.00387192
0.00404316
0.00416958
0.00442901
0.0044381
0.00401537
0.00385474
0.00367681
0.00348592
0.00327314
0.00306743
0.0029237
0.00279738
0.00270815
0.00266253
0.00264791
0.00269581
0.00375275
0.00360191
0.00343506
0.00324648
0.00304882
0.00290512
0.00280469
0.00270449
0.00264297
0.00262307
0.00263681
0.00271096
0.00354059
0.00339954
0.0032342
0.00305027
0.0029018
0.00280589
0.00271753
0.00262949
0.0025748
0.00252563
0.00246109
0.00239807
0.00338174
0.00324545
0.00308655
0.00292226
0.00281379
0.00273951
0.0026474
0.00254842
0.0024483
0.00228294
0.00199123
0.00157164
0.0028668
0.00309223
0.00328628
0.0035145
0.00374151
0.00393176
0.00407748
0.00416309
0.00419605
0.00419399
0.00421754
0.00414266
0.00289225
0.00321031
0.00347462
0.00376104
0.00397974
0.00414396
0.00422618
0.00421564
0.00415647
0.0040798
0.00400204
0.00388596
0.00248943
0.00311643
0.00353442
0.00384024
0.00405435
0.00417096
0.00420694
0.00415344
0.00404927
0.00393108
0.0038082
0.00367306
0.0014103
0.00277533
0.00342514
0.00380454
0.00399709
0.00409395
0.00411004
0.00403947
0.00392049
0.00378455
0.00364616
0.0035078
0.00400619
0.0038468
0.00367003
0.00348082
0.0032696
0.00306435
0.00292226
0.00279561
0.00270729
0.002663
0.00264983
0.00269948
0.00374458
0.00359507
0.00342987
0.00324287
0.00304598
0.00290256
0.00280366
0.00270422
0.00264343
0.00262474
0.00263947
0.00271426
0.00353337
0.00339395
0.00323027
0.00304769
0.00289976
0.00280413
0.00271731
0.00263021
0.00257602
0.00252766
0.0024635
0.00240053
0.00337536
0.00324108
0.00308366
0.00292046
0.00281366
0.00273877
0.00264787
0.00254963
0.00244974
0.00228475
0.00199293
0.001573
0.00287004
0.00309647
0.00329049
0.00351919
0.00374781
0.00393974
0.00408685
0.00417368
0.00420703
0.004205
0.00422823
0.0041516
0.00289548
0.00321341
0.00347762
0.00376519
0.00398562
0.00415188
0.00423612
0.00422722
0.00416846
0.00409124
0.00401229
0.00389443
0.00249188
0.00311855
0.00353685
0.00384399
0.00406016
0.00417898
0.00421737
0.00416574
0.00406224
0.00394278
0.00381828
0.00368128
0.00141168
0.00277672
0.00342713
0.00380809
0.00400281
0.00410195
0.00412077
0.00405196
0.00393367
0.00379627
0.00365607
0.00351586
0.00401359
0.00385273
0.00367474
0.00348411
0.00327172
0.00306651
0.00292418
0.00279689
0.00270878
0.00266408
0.00265038
0.00269984
0.00375137
0.00360043
0.00343369
0.00324545
0.00304815
0.00290491
0.00280522
0.0027053
0.0026446
0.00262544
0.00263983
0.00271461
0.00353985
0.0033988
0.00323368
0.0030501
0.00290199
0.00280639
0.00271867
0.00263115
0.00257695
0.00252815
0.00246379
0.00240082
0.00338177
0.00324556
0.00308695
0.00292297
0.00281473
0.00274074
0.00264914
0.00255053
0.00245052
0.00228511
0.00199316
0.00157333
0.00287087
0.00309724
0.00329144
0.00352005
0.0037477
0.00393846
0.0040842
0.00416962
0.00420217
0.00419994
0.00422345
0.00414755
0.00289592
0.00321446
0.00347901
0.00376625
0.00398544
0.00415009
0.00423223
0.00422145
0.00416186
0.00408467
0.0040064
0.00388948
0.0024921
0.00311971
0.00353835
0.00384495
0.00405976
0.00417676
0.00421259
0.00415879
0.00405415
0.00393511
0.00381147
0.00367556
0.00141203
0.00277774
0.00342863
0.00380899
0.00400226
0.00409948
0.00411535
0.00404432
0.00392482
0.00378785
0.00364858
0.00350949
0.00401007
0.00384972
0.00367209
0.00348183
0.00326964
0.00306442
0.00292209
0.00279465
0.00270636
0.00266115
0.00264687
0.00269528
0.00374723
0.00359695
0.00343076
0.00324288
0.00304568
0.00290255
0.00280281
0.00270265
0.0026417
0.00262205
0.00263599
0.00271032
0.00353508
0.00339482
0.00323028
0.00304696
0.00289914
0.00280371
0.00271586
0.00262817
0.00257383
0.00252477
0.00246025
0.00239725
0.00337639
0.00324106
0.00308298
0.00291934
0.00281147
0.00273766
0.00264599
0.00254736
0.00244744
0.00228215
0.00199038
0.00157079
0.00286599
0.0030915
0.00328524
0.0035138
0.00374194
0.00393416
0.0040824
0.00417075
0.00420559
0.00420413
0.0042267
0.00415353
0.00289126
0.0032085
0.00347251
0.00375997
0.00398036
0.00414734
0.00423303
0.00422586
0.00416856
0.00409219
0.00401362
0.00389679
0.00248845
0.00311417
0.00353224
0.0038392
0.00405544
0.00417492
0.00421474
0.00416492
0.00406301
0.00394449
0.00382065
0.00368385
0.00140944
0.00277308
0.00342294
0.00380349
0.00399822
0.0040979
0.00411816
0.00405118
0.00393447
0.00379811
0.00365863
0.00351828
0.00326922
0.0031417
0.00299812
0.00285926
0.00277159
0.00269319
0.00258234
0.00243852
0.00224368
0.00188846
0.00116893
0.000332925
0.00319469
0.00308274
0.002956
0.00284059
0.00276287
0.00266169
0.00251142
0.00231578
0.00202861
0.00155648
0.000738569
0.000174806
0.00314702
0.00305336
0.00293996
0.00284678
0.00277028
0.00263402
0.00244959
0.00220386
0.00185357
0.00134743
0.000577296
0.000141551
0.0031096
0.00303302
0.00293468
0.00286656
0.00277584
0.00261357
0.00240228
0.00211842
0.00173709
0.00126768
0.000623751
0.000143683
0.00306166
0.00299872
0.00292349
0.00287542
0.00276878
0.00259623
0.00236748
0.00206256
0.00167804
0.00127843
0.00072538
0.000149734
0.0029836
0.00293704
0.00288674
0.00285251
0.00274017
0.0025691
0.00233525
0.00202608
0.00165397
0.00128133
0.000784389
0.000155947
0.00285441
0.00282769
0.00280194
0.00278098
0.00267456
0.00251401
0.00228697
0.0019861
0.00162845
0.00124685
0.00077958
0.000162323
0.00264853
0.00264441
0.00264255
0.00263671
0.00254684
0.00240404
0.00219379
0.00190893
0.00156156
0.00116704
0.000723914
0.000165227
0.00232797
0.00234708
0.00236798
0.0023795
0.00231444
0.00219511
0.00201092
0.00174893
0.00141399
0.00102795
0.000619178
0.000164218
0.00183072
0.00186904
0.00190594
0.00193464
0.00189835
0.00180689
0.00166263
0.00143892
0.00113753
0.00079766
0.000454743
0.000157013
0.0010575
0.00109641
0.00113417
0.00116331
0.00115281
0.00109842
0.00101714
0.000889189
0.000673914
0.000448193
0.000235365
0.000141186
0.000125137
0.00012867
0.000131534
0.000133473
0.000134485
0.00013286
0.000128396
0.000121238
0.000109426
9.21115e-05
7.2809e-05
4.67433e-05
0.000325757
0.0023397
0.00328405
0.00368475
0.00387176
0.00396291
0.00397246
0.00389926
0.00378126
0.00365102
0.00351663
0.00338604
0.000278551
0.00217002
0.00313468
0.00352233
0.00370848
0.00379871
0.00380912
0.00374554
0.00364565
0.00353197
0.00341341
0.00329863
0.000265387
0.00204494
0.00296473
0.00333215
0.00351822
0.00361176
0.00362929
0.0035864
0.00351069
0.0034205
0.00332555
0.00323268
0.000257169
0.00192964
0.00277253
0.00311717
0.00330324
0.00340415
0.00343552
0.00341586
0.00336781
0.00330608
0.00323916
0.00317209
0.000249429
0.00180407
0.00255771
0.00287605
0.00306158
0.00317216
0.00322067
0.00322588
0.0032071
0.00317592
0.00313873
0.00309906
0.000240652
0.00165914
0.0023174
0.00260582
0.002789
0.00290945
0.00297584
0.00300586
0.00301612
0.00301535
0.00300775
0.00299547
0.000229837
0.00148936
0.00204871
0.00230265
0.00247947
0.00260733
0.00268975
0.0027424
0.00277946
0.00280723
0.00282774
0.00284183
0.00021635
0.00128986
0.00174849
0.00196137
0.00212478
0.00225427
0.00234777
0.00241816
0.00247734
0.00252982
0.00257553
0.0026142
0.000199063
0.00105698
0.00141094
0.00157369
0.00171313
0.00183443
0.00193032
0.0020099
0.00208286
0.0021529
0.00221825
0.00227789
0.000179756
0.000778232
0.00102261
0.00112489
0.00122639
0.00131964
0.00140173
0.00147666
0.00155173
0.00162883
0.00170631
0.0017735
0.00015631
0.000441641
0.000534285
0.000570818
0.000630122
0.000689182
0.000745746
0.00079773
0.000850726
0.000907189
0.000963814
0.00101303
4.05623e-05
5.24247e-05
6.46924e-05
7.12949e-05
7.91544e-05
8.73261e-05
9.41481e-05
0.000100099
0.000105645
0.000110963
0.000115944
0.00012077
0.00326368
0.00313815
0.00299605
0.00285758
0.00277078
0.00269313
0.00258327
0.00243968
0.00224507
0.00188998
0.00116988
0.000333088
0.00318982
0.00307976
0.00295429
0.00283912
0.00276208
0.00266204
0.00251233
0.00231679
0.00202981
0.00155766
0.000739409
0.000174827
0.00314266
0.00305059
0.00293825
0.00284541
0.0027697
0.00263429
0.00245021
0.00220457
0.00185439
0.00134818
0.000577787
0.000141475
0.00310554
0.00303021
0.00293278
0.00286512
0.00277508
0.00261344
0.00240241
0.00211864
0.00173737
0.00126785
0.000623748
0.000143582
0.00305764
0.00299566
0.00292125
0.00287367
0.00276753
0.00259549
0.00236697
0.00206215
0.00167767
0.001278
0.000724915
0.000149621
0.00297947
0.0029337
0.00288415
0.00285028
0.00273833
0.00256766
0.00233402
0.00202498
0.00165296
0.0012803
0.000783471
0.000155826
0.00285019
0.00282414
0.00279903
0.0027783
0.00267218
0.00251194
0.00228509
0.0019844
0.0016269
0.00124542
0.000778399
0.000162193
0.00264444
0.0026409
0.00263956
0.00263379
0.00254416
0.00240155
0.00219148
0.00190683
0.00155969
0.00116542
0.000722734
0.000165089
0.00232446
0.00234398
0.00236525
0.00237677
0.00231181
0.00219258
0.00200855
0.00174676
0.00141206
0.0010264
0.000618129
0.000164089
0.00182805
0.00186679
0.00190394
0.00193257
0.00189622
0.0018048
0.00166069
0.0014371
0.00113586
0.000796362
0.00045393
0.000156891
0.00105631
0.00109542
0.00113327
0.00116234
0.00115163
0.00109719
0.00101601
0.000888116
0.000672755
0.000447397
0.000234923
0.000141082
0.000124995
0.000128554
0.000131428
0.000133378
0.00013441
0.000132781
0.000128316
0.00012116
0.000109352
9.20498e-05
7.27608e-05
4.67146e-05
0.000325857
0.00234053
0.00328575
0.00368802
0.00387729
0.00397086
0.00398324
0.00391184
0.00379404
0.00366237
0.00352634
0.00339398
0.000278533
0.00217067
0.00313608
0.00352529
0.00371374
0.0038065
0.0038196
0.00375749
0.00365749
0.00354293
0.00342288
0.00330652
0.000265373
0.00204558
0.00296581
0.00333477
0.00352315
0.0036192
0.00363906
0.00359748
0.0035219
0.00343099
0.0033348
0.00324053
0.000257162
0.00193026
0.00277336
0.00311946
0.00330776
0.00341107
0.00344456
0.00342614
0.00337835
0.0033161
0.00324815
0.00317991
0.000249438
0.00180465
0.00255832
0.00287799
0.00306562
0.00317847
0.00322892
0.00323533
0.00321692
0.00318541
0.00314744
0.00310679
0.000240668
0.00165966
0.00231778
0.00260739
0.00279251
0.00291505
0.00298323
0.00301441
0.00302512
0.00302422
0.00301606
0.00300299
0.000229862
0.00148978
0.00204888
0.00230384
0.0024824
0.00261214
0.00269617
0.00274993
0.00278751
0.0028153
0.00283547
0.00284895
0.000216387
0.00129014
0.00174846
0.00196219
0.0021271
0.0022582
0.00235313
0.00242453
0.00248425
0.00253686
0.00258238
0.00262062
0.00019909
0.00105714
0.00141077
0.00157419
0.00171481
0.00183743
0.00193448
0.00201491
0.00208836
0.00215859
0.00222384
0.00228321
0.000179782
0.0007784
0.00102238
0.00112515
0.00122746
0.00132158
0.0014045
0.00148017
0.00155562
0.00163289
0.00171027
0.00177713
0.000156329
0.000441661
0.000534119
0.000570887
0.000630647
0.000690182
0.000747178
0.000799478
0.000852656
0.000909145
0.000965551
0.00101469
4.05606e-05
5.24275e-05
6.47058e-05
7.1336e-05
7.92588e-05
8.74775e-05
9.43274e-05
0.000100287
0.000105835
0.000111143
0.0001161
0.00012091
0.00327006
0.00314266
0.0029994
0.00286072
0.0027732
0.00269506
0.0025845
0.00244079
0.0022458
0.00189016
0.00116997
0.00033318
0.00319628
0.00308443
0.00295791
0.00284268
0.00276502
0.00266395
0.00251379
0.00231811
0.00203068
0.00155807
0.000739635
0.000174966
0.00314925
0.00305556
0.00294229
0.00284937
0.00277261
0.00263637
0.00245205
0.00220619
0.0018556
0.00134894
0.000578888
0.000141622
0.00311225
0.00303546
0.00293723
0.00286931
0.00277808
0.00261592
0.00240464
0.00212063
0.00173906
0.00126926
0.000624952
0.000143717
0.00306441
0.00300119
0.00292603
0.00287804
0.00277078
0.00259836
0.00236956
0.00206452
0.00167977
0.00127968
0.000726466
0.000149758
0.00298616
0.0029394
0.0028892
0.0028548
0.00274186
0.00257085
0.00233691
0.00202764
0.00165534
0.00128234
0.0007851
0.000155955
0.00285654
0.00282975
0.00280417
0.00278286
0.00267591
0.00251531
0.00228817
0.0019872
0.00162941
0.0012477
0.000780121
0.000162314
0.00265014
0.00264604
0.00264448
0.00263813
0.00254784
0.00240487
0.00219452
0.00190956
0.00156217
0.00116759
0.000724411
0.000165197
0.0023291
0.00234824
0.00236945
0.00238046
0.00231503
0.0021955
0.00201123
0.00174916
0.00141431
0.00102827
0.000619411
0.000164172
0.00183124
0.00186973
0.00190685
0.00193513
0.00189851
0.00180689
0.00166258
0.00143885
0.00113761
0.000797783
0.000454829
0.000156965
0.00105776
0.00109671
0.00113449
0.00116342
0.00115264
0.00109819
0.0010169
0.000888978
0.000673847
0.000448203
0.000235369
0.000141137