/*--------------------------------*- C++ -*----------------------------------*\
| =========                 |                                                 |
| \\      /  F ield         | OpenFOAM: The Open Source CFD Toolbox           |
|  \\    /   O peration     | Version:  v1912                                 |
|   \\  /    A nd           | Website:  www.openfoam.com                      |
|    \\/     M anipulation  |                                                 |
\*---------------------------------------------------------------------------*/
FoamFile
{
    version     2.0;
    format      ascii;
    class       volScalarField;
    location    "150";
    object      p;
}
// * * * * * * * * * * * * * * * * * * * * * * * * * * * * * * * * * * * * * //

dimensions      [0 2 -2 0 0 0 0];


internalField   nonuniform List<scalar> 
3072
(
0.00327317
-0.262982
-0.512015
-0.601019
-0.638437
-0.494917
-0.252333
-0.557476
-1.64483
-2.83343
-3.98114
-4.74881
0.588618
0.196411
0.0686397
0.113265
0.336599
0.800272
1.88377
2.37487
2.37524
2.19712
1.93166
1.65784
1.47647
1.10266
1.08311
1.38972
1.85496
2.29158
2.77076
2.9184
2.87427
2.72896
2.5296
2.35079
2.76312
2.56254
2.7734
3.23318
3.71306
4.06912
4.24871
4.33519
4.38905
4.38699
4.33533
4.27855
4.03867
4.02316
4.38631
4.88926
5.31109
5.55913
5.73605
5.8255
5.85188
5.82797
5.77023
5.70235
5.21804
5.36518
5.81095
6.32364
6.73604
6.98481
7.12637
7.17605
7.16619
7.11705
7.04566
6.96755
6.30897
6.62528
7.14512
7.72008
8.12629
8.34275
8.42696
8.42256
8.36746
8.28451
8.18898
8.09302
7.40677
7.87092
8.46601
9.0717
9.44567
9.60545
9.62152
9.5545
9.448
9.32844
9.20958
9.09911
8.53011
9.16352
9.78469
10.3445
10.6563
10.7371
10.675
10.5455
10.3948
10.2478
10.1151
10.0002
9.66819
10.4489
11.0785
11.5435
11.7366
11.7041
11.5594
11.3754
11.1954
11.0399
10.912
10.8083
10.7847
11.8846
12.3848
12.6097
12.639
12.4822
12.2612
12.0388
11.8486
11.7056
11.6048
11.5343
11.424
13.3153
13.5553
13.4145
13.2605
13.0105
12.7495
12.5293
12.364
12.2624
12.2114
12.1951
-5.19894
-5.21652
-4.88577
-4.16978
-3.15577
-1.85816
-0.377783
1.17894
2.65479
4.01828
4.77219
4.48403
1.46478
1.37893
1.4327
1.61685
1.94162
2.39025
2.95032
3.54434
4.13345
4.91871
5.2183
4.20377
2.23455
2.2216
2.33297
2.55298
2.85382
3.21839
3.61636
3.97322
4.22456
4.49508
4.58452
3.01654
4.2376
4.22812
4.25639
4.32409
4.42459
4.54245
4.65779
4.71975
4.65317
4.48248
4.33372
2.26665
5.63918
5.59131
5.56354
5.55249
5.5575
5.57094
5.56731
5.50846
5.32628
4.97173
4.60478
2.36571
6.89212
6.82427
6.7656
6.71586
6.6772
6.64124
6.58631
6.48273
6.27638
5.92537
5.50216
3.26588
8.00242
7.91956
7.84586
7.78212
7.7302
7.68428
7.63316
7.55485
7.4101
7.14001
6.77236
4.96357
8.99976
8.91094
8.83452
8.77119
8.72435
8.69577
8.68428
8.67975
8.66316
8.59003
8.51214
7.22658
9.90197
9.81499
9.74142
9.68323
9.64826
9.64656
9.68884
9.77883
9.92639
10.1202
10.4307
10.0733
10.7236
10.645
10.5773
10.5235
10.4975
10.5177
10.6095
10.7927
11.1086
11.5998
12.4935
13.3235
11.4797
11.4158
11.355
11.3015
11.2751
11.3018
11.4217
11.6669
12.1104
12.8585
14.434
16.9605
12.1851
12.1472
12.0919
12.0333
11.9944
12.008
12.1228
12.3647
12.838
13.6761
15.4995
19.7153
0.00488783
-0.260539
-0.508624
-0.597006
-0.633839
-0.491556
-0.248676
-0.543451
-1.62474
-2.8103
-3.9574
-4.72562
0.589321
0.198896
0.0702662
0.114352
0.338434
0.796522
1.87507
2.37348
2.37719
2.20353
1.93963
1.66724
1.473
1.09924
1.07867
1.38295
1.8484
2.28457
2.76541
2.91957
2.87796
2.7357
2.53742
2.35956
2.75557
2.55403
2.76308
3.22324
3.70553
4.06455
4.24758
4.33624
4.3912
4.39076
4.34019
4.28421
4.03065
4.01358
4.37568
4.87927
5.30367
5.55537
5.73477
5.82609
5.8539
5.83126
5.77458
5.70731
5.21064
5.35568
5.80108
6.31465
6.72956
6.98102
7.12475
7.17644
7.16786
7.12012
7.04953
6.97211
6.30282
6.61671
7.13615
7.71127
8.11996
8.33863
8.42512
8.42249
8.36893
8.28718
8.19269
8.09729
7.40085
7.86284
8.45668
9.06259
9.43867
9.60083
9.61916
9.55403
9.4491
9.33085
9.21303
9.10322
8.52407
9.15566
9.77518
10.3352
10.6489
10.732
10.6723
10.5446
10.3955
10.25
10.1183
10.0041
9.66173
10.4408
11.0689
11.5344
11.7292
11.699
11.5565
11.3744
11.1959
11.0417
10.9149
10.8119
10.7781
11.8761
12.3752
12.601
12.6321
12.4775
12.2585
12.0378
11.8491
11.7073
11.6074
11.5376
11.4181
13.3064
13.5465
13.4068
13.2547
13.0066
12.7474
12.5287
12.3646
12.264
12.2138
12.1978
-5.17775
-5.19777
-4.87026
-4.15762
-3.1471
-1.85258
-0.375108
1.17915
2.65319
4.01556
4.76863
4.48058
1.47387
1.38748
1.43984
1.62247
1.94553
2.39251
2.951
3.54359
4.13174
4.91641
5.2155
4.20122
2.24321
2.22947
2.33959
2.55846
2.85793
3.22113
3.61772
3.9734
4.22398
4.49388
4.58297
3.01535
4.24352
4.23387
4.26157
4.32854
4.42809
4.54495
4.65927
4.72038
4.65319
4.48208
4.33307
2.26643
5.64452
5.59661
5.56846
5.55676
5.56093
5.57358
5.56905
5.50954
5.3269
4.97221
4.60416
2.36636
6.89686
6.82907
6.77021
6.71984
6.68062
6.64375
6.58815
6.48393
6.27727
5.92591
5.50148
3.26654
8.00698
7.92415
7.85022
7.78601
7.73337
7.68673
7.63485
7.55592
7.41051
7.14046
6.77193
4.96306
9.00417
8.91542
8.83871
8.77488
8.72732
8.69798
8.68564
8.68043
8.66352
8.58966
8.51177
7.22586
9.9062
9.81932
9.74546
9.68672
9.65101
9.64847
9.68987
9.77916
9.92599
10.1198
10.4302
10.0724
10.7275
10.6492
10.5812
10.5267
10.5
10.5193
10.6101
10.7925
11.1079
11.5988
12.4928
13.3229
11.4834
11.4199
11.3586
11.3046
11.2775
11.3032
11.4221
11.6665
12.1093
12.857
14.4334
16.9605
12.1886
12.1509
12.0952
12.0363
11.9966
12.0093
12.1232
12.3644
12.8368
13.6744
15.4984
19.7171
0.00575421
-0.259634
-0.507487
-0.595653
-0.632624
-0.489484
-0.247039
-0.547675
-1.63332
-2.822
-3.97105
-4.74046
0.59053
0.200497
0.0726125
0.117025
0.341181
0.801884
1.88181
2.37653
2.37789
2.20127
1.93567
1.6618
1.47427
1.10104
1.08119
1.38681
1.85251
2.28923
2.76934
2.92035
2.87678
2.73233
2.53289
2.35392
2.75718
2.55595
2.7662
3.2272
3.70917
4.0672
4.24858
4.33591
4.39003
4.38839
4.33682
4.28005
4.03272
4.01596
4.37901
4.8832
5.30705
5.55737
5.73554
5.82583
5.85266
5.82907
5.77141
5.70346
5.21315
5.35851
5.80458
6.31843
6.73276
6.9831
7.12588
7.17639
7.16692
7.11802
7.04666
6.96839
6.30544
6.61966
7.13967
7.71541
8.12344
8.34124
8.42659
8.42291
8.36817
8.28543
8.1899
8.09377
7.40374
7.86591
8.4607
9.06718
9.4428
9.60398
9.62117
9.55482
9.44871
9.32933
9.21048
9.09983
8.52717
9.1589
9.77948
10.3401
10.6534
10.7357
10.6747
10.5458
10.3955
10.2487
10.116
10.0009
9.66501
10.4442
11.0735
11.5394
11.7338
11.7028
11.5591
11.3757
11.1961
11.0408
10.9128
10.809
10.7814
11.8799
12.3801
12.606
12.6366
12.4811
12.2611
12.0393
11.8494
11.7066
11.6057
11.535
11.4209
13.3106
13.5513
13.4117
13.259
13.01
12.7499
12.5302
12.3651
12.2635
12.2123
12.1956
-5.19264
-5.212
-4.88293
-4.16815
-3.15501
-1.85775
-0.377465
1.17939
2.65561
4.0196
4.7738
4.48564
1.46795
1.38148
1.4344
1.61794
1.94221
2.3906
2.95059
3.54467
4.13401
4.91956
5.21939
4.20469
2.23709
2.22341
2.33403
2.55357
2.85395
3.21825
3.61608
3.97295
4.22444
4.49512
4.58465
3.01627
4.23888
4.22905
4.25688
4.32424
4.42436
4.54198
4.65716
4.71905
4.65249
4.48179
4.33306
2.26547
5.64008
5.59193
5.56375
5.55223
5.55693
5.57012
5.56632
5.50738
5.32517
4.9706
4.60357
2.36406
6.8927
6.82453
6.76547
6.71528
6.67635
6.64011
6.585
6.48137
6.27501
5.92401
5.50102
3.26401
8.00287
7.91965
7.84552
7.78136
7.72908
7.68287
7.6316
7.55326
7.40864
7.13881
6.77135
4.96268
9.00016
8.91094
8.83406
8.77025
8.723
8.69412
8.68249
8.67803
8.6617
8.5891
8.51188
7.22677
9.90234
9.81493
9.74086
9.68216
9.64675
9.64473
9.68687
9.77697
9.92496
10.1196
10.4313
10.0751
10.7239
10.6449
10.5767
10.5223
10.4959
10.5157
10.6074
10.7907
11.1071
11.5993
12.495
13.327
11.48
11.4158
11.3543
11.3004
11.2735
11.2998
11.4196
11.6648
12.1088
12.858
14.4361
16.9659
12.1855
12.1471
12.0912
12.0322
11.9929
12.0061
12.1208
12.3627
12.8362
13.675
15.5011
19.7213
0.00305739
-0.262573
-0.510786
-0.599078
-0.635877
-0.49312
-0.250165
-0.546884
-1.63031
-2.81739
-3.96545
-4.73403
0.587282
0.196445
0.0679068
0.112158
0.336647
0.796022
1.87516
2.37255
2.37506
2.20014
1.9353
1.6623
1.4706
1.09625
1.07575
1.3803
1.84601
2.28232
2.76304
2.91615
2.87364
2.73056
2.53174
2.3537
2.75308
2.55096
2.75989
3.22027
3.70278
4.0616
4.24398
4.33212
4.38667
4.38586
4.33509
4.27908
4.02854
4.01084
4.37295
4.87683
5.3012
5.55208
5.73085
5.82172
5.84915
5.8262
5.76939
5.70214
5.20917
5.35327
5.79893
6.31282
6.72728
6.97796
7.12109
7.17224
7.16323
7.11519
7.04445
6.96705
6.30196
6.61459
7.13447
7.71006
8.11839
8.33634
8.42205
8.41873
8.36463
8.2825
8.1878
8.09236
7.40036
7.86093
8.45554
9.0624
9.43831
9.59957
9.61692
9.55091
9.44527
9.32653
9.20842
9.0985
8.52388
9.15406
9.77479
10.336
10.6496
10.7318
10.6709
10.5422
10.3923
10.2461
10.1141
9.99966
9.66188
10.4398
11.0694
11.5359
11.7305
11.6994
11.5556
11.3724
11.1931
11.0383
10.911
10.8078
10.778
11.8757
12.3762
12.6029
12.6335
12.4779
12.2578
12.0362
11.8466
11.7043
11.604
11.5339
11.4174
13.3064
13.5476
13.4084
13.2557
13.0066
12.7466
12.5271
12.3625
12.2613
12.2107
12.1946
-5.18596
-5.20544
-4.87718
-4.16369
-3.15233
-1.85705
-0.37896
1.17581
2.65019
4.01284
4.76613
4.47804
1.46867
1.3823
1.43492
1.61792
1.9414
2.38879
2.94764
3.54055
4.12889
4.91379
5.21302
4.19867
2.23745
2.2241
2.33472
2.55402
2.85397
3.2176
3.61456
3.97049
4.22121
4.49128
4.58051
3.01287
4.23851
4.22913
4.25717
4.32449
4.42443
4.54162
4.65625
4.71757
4.65051
4.47952
4.33064
2.26391
5.63952
5.59187
5.56409
5.55284
5.55737
5.57033
5.5661
5.50677
5.32422
4.96951
4.60177
2.36361
6.89195
6.82446
6.76595
6.71603
6.67714
6.64064
6.58529
6.48124
6.2746
5.92319
5.4989
3.26356
8.00219
7.91964
7.84608
7.78227
7.73004
7.68374
7.63213
7.55334
7.40794
7.13773
6.76906
4.95984
8.99954
8.91103
8.83468
8.77127
8.72412
8.69514
8.68308
8.678
8.66105
8.58694
8.50858
7.22221
9.9018
9.81509
9.74157
9.68323
9.64795
9.64579
9.68749
9.77692
9.92369
10.1171
10.4267
10.0682
10.7234
10.6451
10.5775
10.5234
10.4971
10.5168
10.6079
10.7905
11.1058
11.5964
12.4892
13.3182
11.4795
11.416
11.355
11.3014
11.2746
11.3007
11.42
11.6646
12.1075
12.855
14.43
16.9554
12.185
12.1473
12.0918
12.0331
11.9937
12.0068
12.121
12.3626
12.8352
13.673
15.4958
19.7125
14.0545
14.1987
13.9269
13.674
13.4415
13.1905
12.9731
12.818
12.7291
12.7131
12.745
12.807
13.722
13.3792
13.3324
13.2266
13.1168
13.0069
12.9287
12.905
12.946
13.06
13.2139
13.3932
13.251
12.9997
12.9007
12.7969
12.7386
12.7297
12.7721
12.8832
13.0653
13.3295
13.6312
13.9803
12.6792
12.4356
12.292
12.2137
12.2238
12.328
12.5117
12.7759
13.1238
13.5822
14.0833
14.6279
12.8598
12.8563
12.8049
12.7338
12.6682
12.6484
12.7245
12.9134
13.2856
13.9206
14.6265
16.5674
13.531
13.5543
13.5093
13.4141
13.305
13.229
13.2232
13.3323
13.5571
14.0051
14.2594
14.7913
14.2161
14.2479
14.2093
14.0845
13.919
13.7638
13.6346
13.6185
13.6472
13.8401
13.8589
13.8826
15.1682
15.2044
15.099
14.8918
14.6253
14.3437
14.0709
13.8471
13.5685
13.4232
13.2006
13.0824
14.0486
14.1907
13.9193
13.6676
13.4367
13.1875
12.9715
12.8176
12.7297
12.7145
12.7471
12.8094
13.7176
13.3734
13.3264
13.2214
13.1127
13.0042
12.9273
12.9046
12.9465
13.0612
13.2156
13.3953
13.2477
12.9956
12.8962
12.7927
12.735
12.727
12.7703
12.8825
13.0654
13.3303
13.6326
13.982
12.6765
12.4327
12.2885
12.2102
12.2204
12.3251
12.5095
12.7745
13.1232
13.5824
14.0841
14.6292
12.8625
12.8597
12.8084
12.7366
12.6703
12.6499
12.7251
12.9134
13.2848
13.9185
14.6251
16.5684
13.5331
13.5572
13.5128
13.417
13.3073
13.2306
13.2243
13.3326
13.557
14.0041
14.2582
14.7922
14.2182
14.2505
14.2125
14.0874
13.9214
13.7656
13.6361
13.6192
13.6478
13.8401
13.8587
13.8834
15.1702
15.2066
15.1018
14.8945
14.6277
14.3456
14.0724
13.8482
13.5697
13.4244
13.2019
13.0834
14.0512
14.1947
13.9238
13.6722
13.4409
13.1909
12.9741
12.8193
12.7305
12.7143
12.7459
12.8075
13.7201
13.3769
13.3304
13.2257
13.1169
13.0079
12.9303
12.9068
12.9477
13.0614
13.2148
13.3937
13.2495
12.9983
12.8995
12.7965
12.739
12.7309
12.7739
12.8853
13.0673
13.3311
13.6322
13.9806
12.678
12.4349
12.2915
12.2138
12.2246
12.3296
12.5139
12.7782
13.126
13.5839
14.0842
14.628
12.8598
12.8563
12.8046
12.7328
12.6669
12.6468
12.7227
12.9114
13.2837
13.9188
14.6255
16.5695
13.5307
13.5542
13.5092
13.4135
13.304
13.2277
13.2217
13.3305
13.5554
14.0033
14.2575
14.7911
14.2161
14.2478
14.2092
14.0841
13.9183
13.7628
13.6335
13.6171
13.6455
13.8383
13.8568
13.8811
15.168
15.2041
15.099
14.8917
14.625
14.3431
14.07
13.846
13.5671
13.4216
13.1987
13.0803
14.0485
14.1911
13.9203
13.6688
13.4374
13.1873
12.9707
12.8162
12.7279
12.7122
12.7444
12.8066
13.7173
13.3733
13.3267
13.222
13.1131
13.0042
12.9268
12.9037
12.9451
13.0594
13.2134
13.3928
13.2464
12.9948
12.8958
12.7926
12.7353
12.7273
12.7705
12.8824
13.0649
13.3292
13.6309
13.9798
12.6745
12.4312
12.2875
12.2098
12.2207
12.326
12.5106
12.7755
13.1238
13.5822
14.083
14.6274
12.8594
12.8562
12.8049
12.7333
12.6673
12.6472
12.7227
12.9115
13.2833
13.9177
14.6244
16.5672
13.5304
13.554
13.5092
13.4136
13.3041
13.2277
13.2216
13.3304
13.5552
14.0033
14.2584
14.7926
14.2156
14.2474
14.2088
14.0838
13.918
13.7623
13.6329
13.6165
13.6457
13.8389
13.8586
13.8845
15.1676
15.2037
15.0983
14.8908
14.624
14.342
14.0689
13.845
13.5671
13.4228
13.2018
13.0849
12.6186
12.3939
12.2364
12.1646
12.1905
12.3159
12.5294
12.8222
13.1942
13.633
14.1208
14.5997
12.9186
12.724
12.5837
12.5135
12.5227
12.6138
12.7768
12.9972
13.2805
13.582
13.9012
14.2355
13.162
12.9968
12.8797
12.8221
12.8284
12.8998
13.0203
13.1848
13.3741
13.5677
13.7752
14.0005
13.3882
13.2479
13.1495
13.103
13.1077
13.1595
13.2405
13.3333
13.4412
13.5616
13.6832
13.7298
15.2424
15.4125
15.4113
15.2477
14.9941
14.6865
14.3596
14.0358
13.6762
13.3934
13.0815
12.8969
14.9354
15.1229
15.1794
15.0857
14.9102
14.6917
14.4418
14.1831
13.8991
13.6449
13.3663
13.1613
14.83
15.0255
15.1072
15.0491
14.9174
14.7418
14.5349
14.3087
14.0593
13.8223
13.5733
13.3722
14.9173
15.0641
15.1032
15.0566
14.946
14.7977
14.6181
14.4174
14.1959
13.9784
13.7558
13.5685
12.6168
12.3921
12.2341
12.1619
12.1877
12.3133
12.5273
12.8208
13.1934
13.6329
14.1213
14.6007
12.9167
12.7224
12.5817
12.5115
12.5206
12.6119
12.7754
12.9964
13.2801
13.5823
13.9018
14.2363
13.161
12.996
12.8787
12.8209
12.8271
12.8987
13.0196
13.1845
13.3741
13.5682
13.776
14.0014
13.3875
13.2477
13.1491
13.1026
13.1072
13.1591
13.2403
13.3333
13.4415
13.5623
13.6841
13.7307
15.2441
15.4146
15.4138
15.2503
14.9966
14.6887
14.3613
14.0373
13.6775
13.3951
13.0828
12.8983
14.9371
15.1249
15.1817
15.0881
14.9126
14.6938
14.4435
14.1846
13.9005
13.6463
13.368
13.1627
14.8317
15.0276
15.1095
15.0515
14.9197
14.7438
14.5365
14.3101
14.0606
13.8238
13.5745
13.3738
14.9192
15.0664
15.1056
15.0589
14.9481
14.7995
14.6196
14.4186
14.1971
13.9795
13.7572
13.5698
12.6181
12.3939
12.2365
12.1653
12.1918
12.3178
12.5317
12.8247
13.1964
13.6348
14.122
14.5999
12.9184
12.7245
12.5845
12.5148
12.5245
12.6161
12.7794
12.9999
13.2829
13.5842
13.9028
14.2361
13.1626
12.998
12.8811
12.824
12.8307
12.9024
13.0232
13.1876
13.3765
13.57
13.7771
14.0016
13.3892
13.2497
13.1515
13.1054
13.1103
13.1624
13.2434
13.3361
13.4439
13.564
13.6853
13.7315
15.2421
15.4122
15.4112
15.2475
14.9939
14.6861
14.3588
14.0348
13.6749
13.392
13.0797
12.8949
14.9353
15.1226
15.1791
15.0854
14.9099
14.6912
14.441
14.1821
13.8979
13.6436
13.3648
13.1596
14.8301
15.0252
15.1069
15.0488
14.9169
14.7412
14.5341
14.3077
14.0582
13.821
13.5719
13.3707
14.9176
15.0639
15.103
15.0562
14.9455
14.797
14.6173
14.4164
14.1948
13.9772
13.7544
13.5672
12.6148
12.3904
12.2329
12.1614
12.188
12.3142
12.5285
12.822
13.1943
13.633
14.1207
14.5992
12.9151
12.721
12.5807
12.511
12.5207
12.6124
12.7762
12.9971
13.2805
13.5823
13.9014
14.2352
13.1595
12.9948
12.8778
12.8203
12.827
12.8989
13.0199
13.1847
13.3741
13.5682
13.7756
14.0006
13.3862
13.2465
13.1481
13.102
13.1069
13.159
13.2402
13.3332
13.4414
13.5621
13.6837
13.7304
15.2416
15.4116
15.4104
15.2467
14.993
14.6851
14.3578
14.0339
13.6745
13.3929
13.0818
12.8992
14.9347
15.1221
15.1785
15.0847
14.9091
14.6903
14.44
14.1812
13.8973
13.6435
13.366
13.1628
14.8293
15.0248
15.1063
15.0482
14.9162
14.7403
14.5331
14.3066
14.0572
13.8205
13.5716
13.3729
14.9164
15.0633
15.1023
15.0556
14.9447
14.796
14.6161
14.415
14.1934
13.9758
13.7536
13.5683
13.6038
13.4871
13.4078
13.3715
13.3722
13.389
13.4129
13.4415
13.4776
13.5169
13.5894
13.4197
13.8011
13.7063
13.6427
13.6073
13.5902
13.5729
13.5456
13.5076
13.4742
13.4431
13.5137
13.4547
13.9722
13.8932
13.8364
13.7993
13.7653
13.712
13.6328
13.5341
13.4442
13.3815
13.4324
13.436
14.1148
14.0461
13.9934
13.9503
13.895
13.8069
13.6828
13.5349
13.4065
13.3387
13.3723
13.4165
14.2289
14.1665
14.1146
14.0621
13.9857
13.8674
13.7075
13.5244
13.3744
13.3065
13.3379
13.4123
14.3178
14.2586
14.2051
14.142
14.0471
13.9047
13.7186
13.5138
13.3553
13.2927
13.3366
13.4247
14.3857
14.3279
14.2715
14.1986
14.0888
13.9286
13.7255
13.5095
13.3514
13.2981
13.3575
13.4541
14.4377
14.3806
14.3212
14.2403
14.1195
13.9475
13.7344
13.5143
13.3612
13.3182
13.3915
13.4952
14.4783
14.4226
14.3613
14.2751
14.1473
13.9681
13.7497
13.5287
13.3816
13.3463
13.4296
13.5405
14.5138
14.4622
14.4029
14.316
14.1848
14.0015
13.7781
13.5541
13.4093
13.3748
13.4631
13.5842
14.5508
14.5088
14.4582
14.3782
14.2484
14.0619
13.8305
13.5948
13.4425
13.3985
13.4903
13.6214
14.5808
14.5474
14.5049
14.4307
14.3075
14.1256
13.8925
13.6526
13.4747
13.424
13.5135
13.6296
15.3238
15.205
15.1311
15.0759
14.9767
14.8476
14.69
14.5118
14.3159
14.1203
13.9248
13.7571
15.3522
15.2559
15.1508
15.0951
15.006
14.892
14.7522
14.5936
14.4204
14.2469
14.0763
13.9297
15.3526
15.2538
15.1655
15.1127
15.0332
14.931
14.8058
14.6638
14.51
14.3561
14.2079
14.0807
15.3353
15.2421
15.1752
15.128
15.0574
14.9649
14.8515
14.7232
14.5855
14.4486
14.3187
14.2076
15.3088
15.2277
15.1812
15.1407
15.0782
14.9936
14.8895
14.7723
14.6477
14.5245
14.4094
14.311
15.2799
15.2121
15.1844
15.1507
15.0953
15.0169
14.9203
14.812
14.6978
14.5856
14.4819
14.3929
15.253
15.1976
15.1854
15.158
15.1085
15.0348
14.9439
14.8427
14.737
14.6335
14.5388
14.4565
15.2319
15.1861
15.1845
15.1623
15.1173
15.0472
14.9606
14.8653
14.7665
14.6702
14.5826
14.5053
15.2193
15.179
15.1816
15.1631
15.1211
15.0532
14.9698
14.8795
14.787
14.697
14.6159
14.5429
15.2156
15.1778
15.1747
15.1572
15.1162
15.0502
14.9697
14.8845
14.7983
14.715
14.6414
14.5734
15.2186
15.1817
15.1636
15.142
15.0996
15.0367
14.9601
14.88
14.8005
14.7251
14.6607
14.6009
15.2288
15.185
15.1553
15.1261
15.0838
15.024
14.9508
14.8745
14.8003
14.7305
14.6703
14.6229
13.6041
13.4878
13.4083
13.3718
13.3724
13.3891
13.413
13.4417
13.4781
13.5177
13.5902
13.4206
13.8018
13.7076
13.6435
13.6081
13.5908
13.5733
13.5458
13.5078
13.4747
13.4438
13.5144
13.4555
13.9737
13.895
13.8378
13.8005
13.7661
13.7125
13.633
13.5343
13.4446
13.3821
13.4331
13.4367
14.1166
14.0481
13.995
13.9516
13.8958
13.8074
13.683
13.5351
13.4069
13.3393
13.3731
13.4173
14.2311
14.1688
14.1164
14.0634
13.9865
13.8678
13.7076
13.5245
13.3748
13.3072
13.3387
13.4131
14.32
14.2608
14.2067
14.1433
14.0478
13.905
13.7187
13.5139
13.3557
13.2934
13.3375
13.4255
14.3881
14.3301
14.2731
14.1998
14.0894
13.9288
13.7254
13.5096
13.3518
13.2989
13.3585
13.455
14.4399
14.3826
14.3227
14.2413
14.12
13.9476
13.7343
13.5144
13.3616
13.3189
13.3924
13.4961
14.4805
14.4245
14.3626
14.276
14.1476
13.9681
13.7495
13.5287
13.382
13.3471
13.4305
13.5414
14.5158
14.4639
14.4039
14.3166
14.1849
14.0014
13.7779
13.5541
13.4097
13.3755
13.464
13.5851
14.5526
14.5102
14.4591
14.3786
14.2483
14.0615
13.8301
13.5947
13.4428
13.3993
13.4913
13.6222
14.5824
14.5486
14.5056
14.4309
14.3073
14.1251
13.892
13.6524
13.475
13.4248
13.5144
13.6305
15.3259
15.2073
15.1334
15.0782
14.9787
14.8494
14.6914
14.513
14.3169
14.1214
13.9256
13.7583
15.3543
15.2583
15.1531
15.0973
15.008
14.8936
14.7535
14.5946
14.4212
14.2476
14.0772
13.9305
15.3548
15.2561
15.1678
15.1148
15.0351
14.9326
14.807
14.6647
14.5107
14.3568
14.2084
14.0814
15.3375
15.2444
15.1775
15.1301
15.0593
14.9665
14.8527
14.7241
14.5861
14.449
14.3192
14.208
15.3112
15.23
15.1835
15.1428
15.0801
14.9951
14.8907
14.7732
14.6483
14.5249
14.4097
14.3114
15.2822
15.2144
15.1867
15.1528
15.0973
15.0185
14.9215
14.8129
14.6984
14.586
14.4823
14.3931
15.2554
15.1999
15.1877
15.1601
15.1104
15.0364
14.9452
14.8437
14.7377
14.634
14.539
14.4568
15.2342
15.1883
15.1868
15.1645
15.1193
15.0489
14.9619
14.8663
14.7673
14.6707
14.583
14.5056
15.2216
15.1813
15.1839
15.1653
15.1231
15.0549
14.9712
14.8806
14.7878
14.6976
14.6164
14.5433
15.2178
15.1801
15.177
15.1594
15.1182
15.0519
14.9711
14.8856
14.7991
14.7157
14.6419
14.5739
15.2209
15.1839
15.1659
15.1441
15.1016
15.0384
14.9615
14.8811
14.8014
14.7259
14.6613
14.6014
15.231
15.1871
15.1574
15.1283
15.0858
15.0257
14.9522
14.8757
14.8012
14.7313
14.671
14.6235
13.6054
13.4894
13.4102
13.3742
13.375
13.3918
13.4158
13.4443
13.4803
13.5195
13.5916
13.4218
13.8029
13.7089
13.6452
13.61
13.593
13.5757
13.5483
13.5103
13.4769
13.4456
13.5159
13.4568
13.9744
13.8959
13.839
13.8021
13.768
13.7146
13.6353
13.5367
13.4468
13.3839
13.4345
13.4381
14.1171
14.0489
13.996
13.9528
13.8974
13.8093
13.6852
13.5375
13.4092
13.3412
13.3746
13.4187
14.2314
14.1693
14.1171
14.0645
13.9879
13.8696
13.7098
13.527
13.3771
13.3091
13.3403
13.4146
14.3203
14.2612
14.2074
14.1442
14.0491
13.9067
13.7209
13.5164
13.358
13.2953
13.3391
13.427
14.3883
14.3305
14.2737
14.2007
14.0906
13.9306
13.7276
13.5121
13.3541
13.3008
13.3601
13.4565
14.4403
14.3831
14.3232
14.2422
14.1212
13.9493
13.7364
13.5168
13.3639
13.3209
13.394
13.4976
14.4809
14.4249
14.3632
14.2769
14.1487
13.9699
13.7516
13.5312
13.3842
13.349
13.4321
13.5429
14.5163
14.4644
14.4046
14.3175
14.1862
14.0031
13.78
13.5565
13.4118
13.3774
13.4655
13.5865
14.5531
14.5108
14.4599
14.3796
14.2496
14.0633
13.8323
13.5971
13.4449
13.4011
13.4927
13.6235
14.583
14.5493
14.5064
14.4319
14.3086
14.1269
13.8941
13.6548
13.4772
13.4266
13.5158
13.6318
15.3239
15.2048
15.1308
15.0755
14.9761
14.847
14.6891
14.5108
14.3148
14.1191
13.9235
13.7558
15.3521
15.2557
15.1504
15.0946
15.0055
14.8913
14.7513
14.5927
14.4193
14.2457
14.075
13.9284
15.3523
15.2534
15.165
15.1122
15.0326
14.9303
14.8049
14.6628
14.5089
14.3549
14.2067
14.0794
15.3349
15.2417
15.1747
15.1274
15.0568
14.9642
14.8506
14.7222
14.5844
14.4474
14.3174
14.2064
15.3084
15.2272
15.1807
15.1401
15.0776
14.9928
14.8887
14.7714
14.6466
14.5233
14.4083
14.3098
15.2794
15.2115
15.1839
15.1501
15.0947
15.0162
14.9194
14.8111
14.6968
14.5845
14.4808
14.3917
15.2525
15.197
15.1848
15.1574
15.1078
15.0341
14.9431
14.8418
14.736
14.6324
14.5377
14.4554
15.2313
15.1854
15.1839
15.1617
15.1167
15.0465
14.9598
14.8644
14.7656
14.6691
14.5815
14.5042
15.2187
15.1784
15.1809
15.1625
15.1205
15.0525
14.969
14.8787
14.7861
14.696
14.6149
14.5419
15.215
15.1772
15.1741
15.1566
15.1156
15.0495
14.9689
14.8836
14.7973
14.7141
14.6404
14.5724
15.2181
15.1811
15.163
15.1413
15.099
15.036
14.9592
14.8791
14.7995
14.7242
14.6598
14.6
15.2283
15.1844
15.1546
15.1254
15.0831
15.0232
14.95
14.8737
14.7994
14.7296
14.6694
14.6221
13.6028
13.4867
13.4073
13.3711
13.3719
13.3886
13.4126
13.4413
13.4778
13.5175
13.5899
13.421
13.8006
13.7064
13.6425
13.6073
13.5901
13.5726
13.5452
13.5073
13.4743
13.4437
13.5144
13.4557
13.9725
13.8939
13.8368
13.7996
13.7653
13.7117
13.6323
13.5337
13.4442
13.3821
13.4331
13.4369
14.1154
14.047
13.994
13.9506
13.8949
13.8064
13.6821
13.5344
13.4065
13.3393
13.3732
13.4174
14.2299
14.1677
14.1154
14.0625
13.9856
13.8668
13.7067
13.5238
13.3744
13.3071
13.3388
13.4132
14.3189
14.2598
14.2058
14.1423
14.0468
13.9039
13.7177
13.5131
13.3553
13.2933
13.3375
13.4255
14.387
14.3291
14.2722
14.1988
14.0884
13.9278
13.7244
13.5088
13.3513
13.2987
13.3584
13.4549
14.4389
14.3817
14.3217
14.2404
14.119
13.9466
13.7333
13.5136
13.3611
13.3187
13.3923
13.496
14.4795
14.4236
14.3618
14.2751
14.1466
13.9671
13.7486
13.5279
13.3815
13.3469
13.4304
13.5412
14.5149
14.463
14.4031
14.3157
14.184
14.0004
13.7769
13.5533
13.4092
13.3753
13.4638
13.5849
14.5517
14.5094
14.4583
14.3779
14.2474
14.0606
13.8292
13.5939
13.4423
13.399
13.4911
13.622
14.5816
14.5479
14.5049
14.4301
14.3065
14.1242
13.8911
13.6516
13.4745
13.4245
13.5142
13.6302
15.3221
15.2038
15.13
15.0748
14.9753
14.8459
14.6878
14.5092
14.313
14.1173
13.9215
13.7561
15.3505
15.2546
15.1497
15.0938
15.0046
14.8901
14.7499
14.5909
14.4173
14.2433
14.0728
13.9278
15.351
15.2524
15.1643
15.1114
15.0317
14.9291
14.8034
14.6609
14.5067
14.3525
14.2038
14.0783
15.3338
15.2408
15.174
15.1267
15.0559
14.963
14.8491
14.7204
14.5822
14.4448
14.3146
14.2048
15.3075
15.2264
15.18
15.1394
15.0767
14.9917
14.8873
14.7696
14.6445
14.5208
14.4053
14.308
15.2786
15.2109
15.1832
15.1494
15.0939
15.0151
14.9181
14.8094
14.6948
14.5821
14.4781
14.3898
15.2518
15.1963
15.1842
15.1567
15.1071
15.0331
14.9419
14.8403
14.7341
14.6302
14.5351
14.4534
15.2306
15.1848
15.1833
15.1611
15.116
15.0456
14.9587
14.8629
14.7639
14.6671
14.5792
14.5023
15.2181
15.1778
15.1804
15.1619
15.1198
15.0516
14.968
14.8773
14.7845
14.6941
14.6129
14.5401
15.2142
15.1765
15.1735
15.156
15.1149
15.0487
14.9679
14.8823
14.7959
14.7123
14.6386
14.5708
15.2173
15.1804
15.1624
15.1407
15.0983
15.0352
14.9583
14.8779
14.7981
14.7225
14.6581
14.5985
15.2274
15.1836
15.154
15.1249
15.0825
15.0225
14.949
14.8724
14.798
14.728
14.6678
14.6208
)
;

boundaryField
{
    rotor
    {
        type            zeroGradient;
    }
    stator
    {
        type            zeroGradient;
    }
    front
    {
        type            empty;
    }
    back
    {
        type            empty;
    }
}


// ************************************************************************* //
