/*--------------------------------*- C++ -*----------------------------------*\
| =========                 |                                                 |
| \\      /  F ield         | OpenFOAM: The Open Source CFD Toolbox           |
|  \\    /   O peration     | Version:  v1912                                 |
|   \\  /    A nd           | Website:  www.openfoam.com                      |
|    \\/     M anipulation  |                                                 |
\*---------------------------------------------------------------------------*/
FoamFile
{
    version     2.0;
    format      ascii;
    class       surfaceScalarField;
    location    "150";
    object      phi;
}
// * * * * * * * * * * * * * * * * * * * * * * * * * * * * * * * * * * * * * //

dimensions      [0 3 -1 0 0 0 0];
oriented        oriented;


internalField   nonuniform List<scalar> 
5952
(
7.20781e-06
-7.29215e-06
1.2451e-05
-5.24558e-06
1.51722e-05
-2.72e-06
1.34894e-05
1.68448e-06
5.8046e-06
7.68487e-06
-1.06198e-05
1.64262e-05
-3.51742e-05
2.45539e-05
-5.60732e-05
2.08996e-05
-7.29267e-05
1.68532e-05
-8.61488e-05
1.32222e-05
-9.62597e-05
1.01107e-05
7.02747e-06
-0.000103287
3.60292e-06
-1.08977e-05
3.03117e-06
-4.67571e-06
-3.56484e-06
3.8751e-06
-1.81028e-05
1.62227e-05
-3.74893e-05
2.70713e-05
-5.29599e-05
3.18973e-05
-6.01047e-05
3.16987e-05
-6.63835e-05
2.71787e-05
-7.23107e-05
2.27804e-05
-7.7468e-05
1.83796e-05
-8.12961e-05
1.39388e-05
9.82076e-06
-8.40897e-05
-1.58017e-06
-9.3195e-06
-7.70123e-06
1.4436e-06
-1.96108e-05
1.57839e-05
-3.28629e-05
2.94747e-05
-4.25289e-05
3.67374e-05
-4.83619e-05
3.77306e-05
-5.20054e-05
3.53424e-05
-5.55987e-05
3.07723e-05
-5.86434e-05
2.58252e-05
-6.11511e-05
2.08874e-05
-6.32671e-05
1.60548e-05
1.15212e-05
-6.49678e-05
-5.85304e-06
-3.46831e-06
-1.42043e-05
9.79345e-06
-2.29796e-05
2.45586e-05
-3.02079e-05
3.67029e-05
-3.50533e-05
4.15829e-05
-3.82854e-05
4.09631e-05
-4.03088e-05
3.7366e-05
-4.19951e-05
3.24591e-05
-4.36303e-05
2.74605e-05
-4.52383e-05
2.24956e-05
-4.67697e-05
1.75863e-05
1.28093e-05
-4.80577e-05
-6.63542e-06
3.16305e-06
-1.29105e-05
1.60671e-05
-1.82572e-05
2.99047e-05
-2.2241e-05
4.06866e-05
-2.45754e-05
4.39173e-05
-2.57463e-05
4.21344e-05
-2.65065e-05
3.81264e-05
-2.74377e-05
3.33907e-05
-2.85201e-05
2.85432e-05
-2.96929e-05
2.36687e-05
-3.08801e-05
1.87736e-05
1.38767e-05
-3.19472e-05
-5.25984e-06
8.41878e-06
-9.38769e-06
2.01929e-05
-1.19649e-05
3.24805e-05
-1.30327e-05
4.17536e-05
-1.30881e-05
4.39723e-05
-1.28093e-05
4.18549e-05
-1.27639e-05
3.80809e-05
-1.31045e-05
3.37308e-05
-1.37648e-05
2.92036e-05
-1.46454e-05
2.45488e-05
-1.56315e-05
1.97598e-05
1.48346e-05
-1.65899e-05
-3.44008e-06
1.18518e-05
-5.46626e-06
2.22159e-05
-5.45228e-06
3.24644e-05
-3.86918e-06
4.01692e-05
-1.82153e-06
4.19229e-05
-2.28935e-07
4.02613e-05
6.67852e-07
3.71828e-05
8.9783e-07
3.35003e-05
6.07857e-07
2.94926e-05
-4.18214e-08
2.51981e-05
-8.95431e-07
2.06126e-05
1.57401e-05
-1.80137e-06
-2.63651e-06
1.4485e-05
-2.7343e-06
2.23117e-05
-1.02714e-07
2.98311e-05
4.34291e-06
3.5722e-05
8.54703e-06
3.77174e-05
1.16268e-05
3.71804e-05
1.35018e-05
3.53069e-05
1.43581e-05
3.26433e-05
1.44463e-05
2.94038e-05
1.40068e-05
2.56371e-05
1.32536e-05
2.13654e-05
1.66196e-05
1.23736e-05
-2.89059e-06
1.73737e-05
-1.7376e-06
2.11578e-05
3.68128e-06
2.44114e-05
1.08934e-05
2.85091e-05
1.74335e-05
3.11765e-05
2.22802e-05
3.2333e-05
2.53728e-05
3.22137e-05
2.70081e-05
3.10075e-05
2.75501e-05
2.88614e-05
2.7347e-05
2.58399e-05
2.66973e-05
2.20149e-05
1.74704e-05
2.58463e-05
-5.7891e-06
2.31642e-05
-1.01341e-06
1.63822e-05
8.03875e-06
1.53593e-05
1.74662e-05
1.90812e-05
2.57444e-05
2.28978e-05
3.20577e-05
2.60189e-05
3.62976e-05
2.79733e-05
3.87303e-05
2.85744e-05
3.97694e-05
2.78221e-05
3.98406e-05
2.57684e-05
3.93141e-05
2.25413e-05
1.82764e-05
3.85079e-05
-1.37223e-07
2.3304e-05
1.00739e-05
6.17209e-06
2.06662e-05
4.76739e-06
2.98892e-05
9.85792e-06
3.75456e-05
1.5241e-05
4.34834e-05
2.00805e-05
4.76688e-05
2.37873e-05
5.02316e-05
2.6011e-05
5.14221e-05
2.66312e-05
5.15967e-05
2.55934e-05
5.11139e-05
2.30237e-05
1.90703e-05
5.03196e-05
3.34145e-05
-1.011e-05
4.40979e-05
-4.51048e-06
4.94598e-05
-5.94414e-07
5.38657e-05
5.45197e-06
5.73657e-05
1.17405e-05
6.00631e-05
1.73826e-05
6.20016e-05
2.18483e-05
6.31444e-05
2.48679e-05
6.34806e-05
2.62946e-05
6.31535e-05
2.59202e-05
6.23588e-05
2.38182e-05
6.13797e-05
2.0049e-05
-0.000107666
4.37889e-06
-0.000109405
1.73823e-06
-0.000108799
-6.06054e-07
-0.000105919
-2.88033e-06
-0.000100819
-5.10059e-06
-9.32776e-05
-7.54224e-06
-8.32147e-05
-1.00633e-05
-7.03756e-05
-1.28397e-05
-5.45902e-05
-1.57859e-05
-3.5844e-05
-1.87469e-05
-1.5644e-05
-2.02014e-05
-1.56445e-05
-8.57122e-05
6.00139e-06
-8.63694e-05
2.395e-06
-8.59322e-05
-1.04346e-06
-8.43237e-05
-4.48946e-06
-8.12943e-05
-8.13035e-06
-7.68007e-05
-1.20366e-05
-7.05971e-05
-1.62676e-05
-6.24973e-05
-2.09401e-05
-5.21185e-05
-2.61653e-05
-3.8977e-05
-3.1889e-05
-2.26475e-05
-3.65319e-05
-3.82923e-05
-6.61566e-05
7.19013e-06
-6.67198e-05
2.95784e-06
-6.64638e-05
-1.29959e-06
-6.52269e-05
-5.72688e-06
-6.29317e-05
-1.04259e-05
-5.94883e-05
-1.54807e-05
-5.47525e-05
-2.1004e-05
-4.85825e-05
-2.71109e-05
-4.0817e-05
-3.39314e-05
-3.10591e-05
-4.16474e-05
-1.80972e-05
-4.94944e-05
-5.63895e-05
-4.8967e-05
8.09952e-06
-4.93698e-05
3.36055e-06
-4.91615e-05
-1.50791e-06
-4.82581e-05
-6.63053e-06
-4.65949e-05
-1.20893e-05
-4.41317e-05
-1.79444e-05
-4.07746e-05
-2.43615e-05
-3.64322e-05
-3.14538e-05
-3.09552e-05
-3.94087e-05
-2.41683e-05
-4.84344e-05
-1.47718e-05
-5.8891e-05
-7.11616e-05
-3.27708e-05
8.92322e-06
-3.32501e-05
3.83996e-06
-3.33059e-05
-1.45219e-06
-3.2872e-05
-7.06459e-06
-3.19221e-05
-1.30394e-05
-3.04224e-05
-1.94444e-05
-2.83164e-05
-2.64679e-05
-2.55322e-05
-3.42381e-05
-2.1951e-05
-4.29901e-05
-1.71986e-05
-5.31875e-05
-1.05109e-05
-6.55797e-05
-8.16728e-05
-1.74055e-05
9.73885e-06
-1.79935e-05
4.4276e-06
-1.82904e-05
-1.15566e-06
-1.82929e-05
-7.06258e-06
-1.79984e-05
-1.33346e-05
-1.73562e-05
-2.00874e-05
-1.63568e-05
-2.7468e-05
-1.49717e-05
-3.56241e-05
-1.3145e-05
-4.48184e-05
-1.08015e-05
-5.55321e-05
-7.16925e-06
-6.92132e-05
-8.88434e-05
-2.64141e-06
1.05782e-05
-3.34287e-06
5.1284e-06
-3.87747e-06
-6.21866e-07
-4.25423e-06
-6.68681e-06
-4.47768e-06
-1.31122e-05
-4.55736e-06
-2.00088e-05
-4.51395e-06
-2.75127e-05
-4.37846e-06
-3.57612e-05
-4.1888e-06
-4.50086e-05
-3.94237e-06
-5.57808e-05
-3.24596e-06
-6.9912e-05
-9.20898e-05
1.15051e-05
1.14463e-05
1.07155e-05
5.91748e-06
1.0021e-05
7.19901e-08
9.39765e-06
-6.06448e-06
8.80836e-06
-1.25239e-05
8.20419e-06
-1.94059e-05
7.51723e-06
-2.68268e-05
6.63013e-06
-3.48748e-05
5.38636e-06
-4.37669e-05
3.60934e-06
-5.40043e-05
1.12044e-06
-6.7424e-05
-9.09705e-05
2.49737e-05
1.23185e-05
2.41545e-05
6.73623e-06
2.34034e-05
8.22341e-07
2.26864e-05
-5.34834e-06
2.19452e-05
-1.17837e-05
2.11005e-05
-1.85621e-05
2.00299e-05
-2.57569e-05
1.84977e-05
-3.33437e-05
1.61708e-05
-4.14396e-05
1.25793e-05
-5.04139e-05
7.27666e-06
-6.21228e-05
-8.36939e-05
3.76709e-05
1.31553e-05
3.68914e-05
7.51539e-06
3.61973e-05
1.51562e-06
3.55607e-05
-4.71239e-06
3.49247e-05
-1.11486e-05
3.41978e-05
-1.78358e-05
3.32085e-05
-2.47682e-05
3.15569e-05
-3.16919e-05
2.86695e-05
-3.85529e-05
2.37097e-05
-4.54541e-05
1.52899e-05
-5.37029e-05
-6.84042e-05
4.95378e-05
1.39364e-05
4.88544e-05
8.19797e-06
4.833e-05
2.03895e-06
4.79624e-05
-4.34584e-06
4.77259e-05
-1.09131e-05
4.7542e-05
-1.76526e-05
4.72085e-05
-2.44351e-05
4.61175e-05
-3.06013e-05
4.34868e-05
-3.59219e-05
3.80589e-05
-4.00261e-05
2.64109e-05
-4.20552e-05
-4.1993e-05
6.05776e-05
1.47381e-05
6.00308e-05
8.74397e-06
5.97847e-05
2.28429e-06
5.99099e-05
-4.47205e-06
6.04212e-05
-1.14249e-05
6.12526e-05
-1.84845e-05
6.21633e-05
-2.53459e-05
6.23195e-05
-3.07575e-05
6.10142e-05
-3.46165e-05
5.66195e-05
-3.56314e-05
4.40787e-05
-2.95142e-05
2.08566e-06
7.27379e-06
-7.27626e-06
1.24715e-05
-5.19947e-06
1.51935e-05
-2.72594e-06
1.35412e-05
1.6503e-06
5.91178e-06
7.62594e-06
-1.0363e-05
1.62743e-05
-3.48671e-05
2.45025e-05
-5.58135e-05
2.09465e-05
-7.2681e-05
1.68668e-05
-8.59297e-05
1.32487e-05
-9.6059e-05
1.01289e-05
7.05095e-06
-0.00010311
3.59242e-06
-1.08716e-05
3.08422e-06
-4.69319e-06
-3.43727e-06
3.79283e-06
-1.78772e-05
1.60891e-05
-3.72305e-05
2.69784e-05
-5.27953e-05
3.1839e-05
-5.9986e-05
3.16927e-05
-6.62436e-05
2.72041e-05
-7.21699e-05
2.27928e-05
-7.73273e-05
1.84061e-05
-8.11636e-05
1.3965e-05
9.85124e-06
-8.3964e-05
-1.5253e-06
-9.34707e-06
-7.57023e-06
1.35069e-06
-1.94361e-05
1.56578e-05
-3.2701e-05
2.93538e-05
-4.23964e-05
3.66734e-05
-4.82674e-05
3.771e-05
-5.1914e-05
3.53391e-05
-5.54896e-05
3.07798e-05
-5.85353e-05
2.58384e-05
-6.10403e-05
2.09112e-05
-6.31573e-05
1.60819e-05
1.15531e-05
-6.48593e-05
-5.8031e-06
-3.54539e-06
-1.41302e-05
9.67689e-06
-2.29022e-05
2.44292e-05
-3.0141e-05
3.65927e-05
-3.49887e-05
4.1521e-05
-3.82146e-05
4.09363e-05
-4.02342e-05
3.73587e-05
-4.1913e-05
3.2459e-05
-4.35421e-05
2.74675e-05
-4.5143e-05
2.25123e-05
-4.66719e-05
1.76108e-05
1.28417e-05
-4.79603e-05
-6.61495e-06
3.06606e-06
-1.28927e-05
1.59528e-05
-1.824e-05
2.97762e-05
-2.22188e-05
4.05708e-05
-2.45449e-05
4.38477e-05
-2.57057e-05
4.20969e-05
-2.64519e-05
3.81058e-05
-2.73728e-05
3.33795e-05
-2.84468e-05
2.85421e-05
-2.96136e-05
2.36788e-05
-3.07975e-05
1.87953e-05
1.39089e-05
-3.1865e-05
-5.26323e-06
8.32007e-06
-9.38885e-06
2.00765e-05
-1.19752e-05
3.23593e-05
-1.30413e-05
4.16371e-05
-1.30879e-05
4.38928e-05
-1.27927e-05
4.18021e-05
-1.2733e-05
3.80448e-05
-1.30611e-05
3.3708e-05
-1.3713e-05
2.91931e-05
-1.45867e-05
2.45526e-05
-1.55697e-05
1.97775e-05
1.48662e-05
-1.65272e-05
-3.464e-06
1.17806e-05
-5.50494e-06
2.21131e-05
-5.48879e-06
3.23425e-05
-3.90585e-06
4.0052e-05
-1.84633e-06
4.18321e-05
-2.39182e-07
4.01932e-05
6.7258e-07
3.71321e-05
9.14479e-07
3.34648e-05
6.34176e-07
2.94727e-05
-8.89738e-09
2.51946e-05
-8.58161e-07
2.0626e-05
1.57698e-05
-1.76274e-06
-2.67485e-06
1.44508e-05
-2.7932e-06
2.22307e-05
-1.695e-07
2.97161e-05
4.27745e-06
3.56034e-05
8.493e-06
3.76151e-05
1.15875e-05
3.70974e-05
1.34765e-05
3.5242e-05
1.43448e-05
3.25955e-05
1.44429e-05
2.93738e-05
1.40108e-05
2.56258e-05
1.32627e-05
2.13733e-05
1.66465e-05
1.23854e-05
-2.92235e-06
1.73721e-05
-1.79408e-06
2.11e-05
3.60623e-06
2.43155e-05
1.08101e-05
2.83985e-05
1.73543e-05
3.10699e-05
2.22117e-05
3.2239e-05
2.53163e-05
3.21366e-05
2.69629e-05
3.09482e-05
2.75147e-05
2.88212e-05
2.73198e-05
2.58202e-05
2.66762e-05
2.20163e-05
1.74931e-05
2.5829e-05
-5.79526e-06
2.31666e-05
-1.03862e-06
1.6344e-05
7.98449e-06
1.52914e-05
1.73913e-05
1.89914e-05
2.56601e-05
2.28004e-05
3.19733e-05
2.59252e-05
3.62183e-05
2.78908e-05
3.86584e-05
2.85075e-05
3.97053e-05
2.77738e-05
3.9784e-05
2.5741e-05
3.92639e-05
2.2536e-05
1.82943e-05
3.84621e-05
-1.30046e-07
2.32968e-05
1.00653e-05
6.14794e-06
2.06354e-05
4.72173e-06
2.98378e-05
9.78887e-06
3.74779e-05
1.516e-05
4.34046e-05
1.9998e-05
4.75846e-05
2.37101e-05
5.01467e-05
2.59447e-05
5.13394e-05
2.65804e-05
5.15176e-05
2.55621e-05
5.10393e-05
2.30136e-05
1.90841e-05
5.02487e-05
3.3414e-05
-1.01173e-05
4.40942e-05
-4.53185e-06
4.9447e-05
-6.31166e-07
5.38367e-05
5.39909e-06
5.73193e-05
1.16773e-05
6.00009e-05
1.73161e-05
6.19267e-05
2.17839e-05
6.30604e-05
2.48104e-05
6.33914e-05
2.62489e-05
6.30623e-05
2.58907e-05
6.2268e-05
2.38073e-05
6.12898e-05
2.00616e-05
-0.00010751
4.39981e-06
-0.000109271
1.76065e-06
-0.000108684
-5.86983e-07
-0.000105823
-2.86141e-06
-0.000100741
-5.08239e-06
-9.3216e-05
-7.52547e-06
-8.31682e-05
-1.0048e-05
-7.0342e-05
-1.28266e-05
-5.45674e-05
-1.57748e-05
-3.58296e-05
-1.8738e-05
-1.56365e-05
-2.01935e-05
-1.56367e-05
-8.55967e-05
6.0324e-06
-8.62632e-05
2.4269e-06
-8.58384e-05
-1.01197e-06
-8.42434e-05
-4.45684e-06
-8.12276e-05
-8.09834e-06
-7.67476e-05
-1.20059e-05
-7.05569e-05
-1.62391e-05
-6.2469e-05
-2.09147e-05
-5.21003e-05
-2.61438e-05
-3.89668e-05
-3.18717e-05
-2.26439e-05
-3.65167e-05
-3.82806e-05
-6.60527e-05
7.22581e-06
-6.66231e-05
2.99705e-06
-6.63776e-05
-1.25744e-06
-6.51521e-05
-5.68273e-06
-6.28691e-05
-1.03814e-05
-5.9438e-05
-1.54374e-05
-5.47142e-05
-2.09631e-05
-4.85558e-05
-2.70735e-05
-4.08011e-05
-3.38987e-05
-3.10516e-05
-4.16214e-05
-1.80943e-05
-4.94742e-05
-5.63748e-05
-4.88734e-05
8.13898e-06
-4.92829e-05
3.40655e-06
-4.90839e-05
-1.45647e-06
-4.8191e-05
-6.57578e-06
-4.65393e-05
-1.20331e-05
-4.40878e-05
-1.78893e-05
-4.07419e-05
-2.43091e-05
-3.64099e-05
-3.14057e-05
-3.09421e-05
-3.93668e-05
-2.41628e-05
-4.84007e-05
-1.47712e-05
-5.88657e-05
-7.11465e-05
-3.26917e-05
8.96584e-06
-3.3177e-05
3.89179e-06
-3.3241e-05
-1.39273e-06
-3.28165e-05
-7.00026e-06
-3.18773e-05
-1.29728e-05
-3.03883e-05
-1.93784e-05
-2.82925e-05
-2.64055e-05
-2.55172e-05
-3.41812e-05
-2.19434e-05
-4.2941e-05
-1.71962e-05
-5.31477e-05
-1.05104e-05
-6.55535e-05
-8.1657e-05
-1.73452e-05
9.78331e-06
-1.79379e-05
4.48375e-06
-1.82414e-05
-1.08953e-06
-1.82527e-05
-6.99018e-06
-1.7967e-05
-1.3259e-05
-1.73341e-05
-2.00126e-05
-1.63431e-05
-2.73972e-05
-1.49651e-05
-3.55602e-05
-1.31434e-05
-4.47634e-05
-1.08051e-05
-5.54892e-05
-7.16972e-06
-6.91889e-05
-8.88289e-05
-2.60385e-06
1.06234e-05
-3.30848e-06
5.18738e-06
-3.84814e-06
-5.51216e-07
-4.23124e-06
-6.60828e-06
-4.46182e-06
-1.303e-05
-4.54833e-06
-1.99275e-05
-4.51088e-06
-2.74361e-05
-4.3796e-06
-3.56929e-05
-4.19322e-06
-4.49519e-05
-3.94563e-06
-5.57368e-05
-3.25302e-06
-6.98866e-05
-9.20823e-05
1.15171e-05
1.14908e-05
1.07262e-05
5.97743e-06
1.00287e-05
1.45104e-07
9.40133e-06
-5.98207e-06
8.8074e-06
-1.24374e-05
8.19927e-06
-1.93206e-05
7.5092e-06
-2.67472e-05
6.62047e-06
-3.48051e-05
5.37772e-06
-4.37096e-05
3.60101e-06
-5.39633e-05
1.1152e-06
-6.74003e-05
-9.09681e-05
2.49583e-05
1.23609e-05
2.41399e-05
6.79491e-06
2.33884e-05
8.95638e-07
2.26698e-05
-5.26456e-06
2.1927e-05
-1.16956e-05
2.10813e-05
-1.84757e-05
2.00108e-05
-2.56774e-05
1.84808e-05
-3.32755e-05
1.61565e-05
-4.1386e-05
1.25695e-05
-5.03751e-05
7.27013e-06
-6.21025e-05
-8.36978e-05
3.76279e-05
1.31945e-05
3.68514e-05
7.57049e-06
3.61595e-05
1.58678e-06
3.55241e-05
-4.63002e-06
3.48898e-05
-1.10619e-05
3.41654e-05
-1.77518e-05
3.31796e-05
-2.46918e-05
3.15331e-05
-3.1629e-05
2.86524e-05
-3.85046e-05
2.36977e-05
-4.54208e-05
1.52824e-05
-5.36864e-05
-6.84141e-05
4.94695e-05
1.39727e-05
4.87914e-05
8.24754e-06
4.8271e-05
2.10605e-06
4.79074e-05
-4.26736e-06
4.76759e-05
-1.0831e-05
4.74983e-05
-1.75746e-05
4.71717e-05
-2.43654e-05
4.60894e-05
-3.05465e-05
4.3467e-05
-3.5882e-05
3.80464e-05
-3.99994e-05
2.64047e-05
-4.20427e-05
-4.20091e-05
6.04907e-05
1.47709e-05
5.99493e-05
8.7882e-06
5.97084e-05
2.34597e-06
5.98404e-05
-4.39987e-06
6.03599e-05
-1.13509e-05
6.12013e-05
-1.84161e-05
6.21219e-05
-2.5286e-05
6.22896e-05
-3.0714e-05
6.09926e-05
-3.45845e-05
5.6606e-05
-3.56118e-05
4.40731e-05
-2.95099e-05
2.06578e-06
7.27609e-06
-7.27744e-06
1.24725e-05
-5.1962e-06
1.51881e-05
-2.71748e-06
1.35249e-05
1.66505e-06
5.86248e-06
7.66048e-06
-1.0482e-05
1.63463e-05
-3.5016e-05
2.45326e-05
-5.59519e-05
2.09369e-05
-7.28237e-05
1.6871e-05
-8.60683e-05
1.32449e-05
-9.61961e-05
1.01271e-05
7.04537e-06
-0.000103242
3.59075e-06
-1.08695e-05
3.07344e-06
-4.67935e-06
-3.46747e-06
3.8225e-06
-1.79474e-05
1.61453e-05
-3.73208e-05
2.70335e-05
-5.28586e-05
3.18847e-05
-6.00441e-05
3.1718e-05
-6.63199e-05
2.72131e-05
-7.22544e-05
2.28053e-05
-7.74188e-05
1.84092e-05
-8.12577e-05
1.39657e-05
9.84666e-06
-8.40593e-05
-1.52345e-06
-9.34687e-06
-7.58183e-06
1.37849e-06
-1.9467e-05
1.57071e-05
-3.27449e-05
2.94233e-05
-4.24402e-05
3.67287e-05
-4.83068e-05
3.77515e-05
-5.19615e-05
3.53726e-05
-5.55522e-05
3.08039e-05
-5.86037e-05
2.58565e-05
-6.11155e-05
2.09209e-05
-6.32372e-05
1.6087e-05
1.15519e-05
-6.49428e-05
-5.80244e-06
-3.54535e-06
-1.41333e-05
9.70888e-06
-2.29128e-05
2.44863e-05
-3.01555e-05
3.6666e-05
-3.50093e-05
4.15824e-05
-3.82435e-05
4.09857e-05
-4.02699e-05
3.73988e-05
-4.1958e-05
3.24919e-05
-4.3596e-05
2.74942e-05
-4.5206e-05
2.25307e-05
-4.67408e-05
1.76215e-05
1.28438e-05
-4.80328e-05
-6.61275e-06
3.0656e-06
-1.28875e-05
1.59832e-05
-1.8236e-05
2.98343e-05
-2.22187e-05
4.06486e-05
-2.45524e-05
4.39157e-05
-2.5721e-05
4.2154e-05
-2.6477e-05
3.81542e-05
-2.74069e-05
3.34213e-05
-2.84895e-05
2.85762e-05
-2.96633e-05
2.37042e-05
-3.08529e-05
1.88107e-05
1.39143e-05
-3.19235e-05
-5.25795e-06
8.32171e-06
-9.38143e-06
2.01056e-05
-1.1963e-05
3.2415e-05
-1.30302e-05
4.17151e-05
-1.30812e-05
4.39659e-05
-1.27949e-05
4.18665e-05
-1.27434e-05
3.81016e-05
-1.30805e-05
3.37571e-05
-1.37395e-05
2.92343e-05
-1.46201e-05
2.45836e-05
-1.56077e-05
1.97977e-05
1.48745e-05
-1.65687e-05
-3.45573e-06
1.17741e-05
-5.48799e-06
2.21364e-05
-5.46933e-06
3.2395e-05
-3.88252e-06
4.01273e-05
-1.82639e-06
4.1908e-05
-2.25209e-07
4.02639e-05
6.78675e-07
3.71955e-05
9.13452e-07
3.35208e-05
6.26066e-07
2.95196e-05
-2.25929e-08
2.5231e-05
-8.76582e-07
2.06503e-05
1.57813e-05
-1.78411e-06
-2.6643e-06
1.44368e-05
-2.77414e-06
2.2245e-05
-1.41626e-07
2.97616e-05
4.3121e-06
3.5672e-05
8.52805e-06
3.76909e-05
1.16182e-05
3.71717e-05
1.35011e-05
3.53111e-05
1.43628e-05
3.26571e-05
1.44548e-05
2.9426e-05
1.40175e-05
2.56668e-05
1.32653e-05
2.14016e-05
1.66607e-05
1.2385e-05
-2.91615e-06
1.73537e-05
-1.77919e-06
2.1108e-05
3.63413e-06
2.43478e-05
1.08506e-05
2.84549e-05
1.74005e-05
3.11399e-05
2.22575e-05
3.23137e-05
2.53579e-05
3.22091e-05
2.69993e-05
3.10142e-05
2.7546e-05
2.88779e-05
2.73466e-05
2.58651e-05
2.66993e-05
2.2048e-05
1.751e-05
2.58495e-05
-5.79969e-06
2.31532e-05
-1.03415e-06
1.63427e-05
8.00406e-06
1.53094e-05
1.74261e-05
1.90327e-05
2.57058e-05
2.28595e-05
3.20244e-05
2.59944e-05
3.62698e-05
2.79625e-05
3.8708e-05
2.8575e-05
3.9752e-05
2.78327e-05
3.98279e-05
2.57884e-05
3.9305e-05
2.25703e-05
1.83132e-05
3.85013e-05
-1.32703e-07
2.32877e-05
1.00665e-05
6.14393e-06
2.06433e-05
4.73273e-06
2.98561e-05
9.81986e-06
3.75077e-05
1.52077e-05
4.34446e-05
2.0057e-05
4.7632e-05
2.37744e-05
5.01983e-05
2.60079e-05
5.1393e-05
2.66372e-05
5.1572e-05
2.56087e-05
5.10933e-05
2.30483e-05
1.91038e-05
5.03021e-05
3.34129e-05
-1.01253e-05
4.40878e-05
-4.53108e-06
4.94383e-05
-6.17842e-07
5.38317e-05
5.4262e-06
5.73233e-05
1.17161e-05
6.00167e-05
1.73634e-05
6.19551e-05
2.18358e-05
6.30999e-05
2.48626e-05
6.34399e-05
2.6297e-05
6.31173e-05
2.5931e-05
6.2327e-05
2.38383e-05
6.13519e-05
2.00785e-05
-0.000107635
4.39303e-06
-0.000109387
1.75141e-06
-0.000108791
-5.96578e-07
-0.000105919
-2.87253e-06
-0.000100825
-5.09471e-06
-9.32877e-05
-7.53836e-06
-8.32269e-05
-1.00614e-05
-7.0388e-05
-1.28397e-05
-5.46011e-05
-1.57875e-05
-3.5852e-05
-1.87498e-05
-1.56486e-05
-2.02051e-05
-1.56492e-05
-8.56908e-05
6.02416e-06
-8.63551e-05
2.41514e-06
-8.59255e-05
-1.02666e-06
-8.43237e-05
-4.47501e-06
-8.13001e-05
-8.11888e-06
-7.68109e-05
-1.20284e-05
-7.06102e-05
-1.62629e-05
-6.25118e-05
-2.0939e-05
-5.21325e-05
-2.61675e-05
-3.89882e-05
-3.1895e-05
-2.26536e-05
-3.65408e-05
-3.83031e-05
-6.61374e-05
7.21844e-06
-6.67065e-05
2.98382e-06
-6.64573e-05
-1.27625e-06
-6.52263e-05
-5.70665e-06
-6.29364e-05
-1.04093e-05
-5.9497e-05
-1.54686e-05
-5.4764e-05
-2.09967e-05
-4.85953e-05
-2.71085e-05
-4.08294e-05
-3.39341e-05
-3.10699e-05
-4.16551e-05
-1.81032e-05
-4.95081e-05
-5.64063e-05
-4.89473e-05
8.13273e-06
-4.93558e-05
3.39211e-06
-4.91535e-05
-1.47868e-06
-4.82555e-05
-6.60504e-06
-4.65973e-05
-1.20678e-05
-4.4138e-05
-1.79284e-05
-4.07836e-05
-2.43516e-05
-3.64427e-05
-3.14501e-05
-3.09658e-05
-3.94112e-05
-2.4178e-05
-4.84432e-05
-1.47773e-05
-5.89088e-05
-7.1184e-05
-3.27516e-05
8.96068e-06
-3.32362e-05
3.87662e-06
-3.32973e-05
-1.41775e-06
-3.28684e-05
-7.03416e-06
-3.19231e-05
-1.30134e-05
-3.04271e-05
-1.94249e-05
-2.83235e-05
-2.64557e-05
-2.55405e-05
-3.42334e-05
-2.19592e-05
-4.29928e-05
-1.72054e-05
-5.31976e-05
-1.05154e-05
-6.55999e-05
-8.16997e-05
-1.73881e-05
9.77974e-06
-1.79803e-05
4.4684e-06
-1.82817e-05
-1.11677e-06
-1.82891e-05
-7.02733e-06
-1.79986e-05
-1.33047e-05
-1.73595e-05
-2.00648e-05
-1.63621e-05
-2.74538e-05
-1.49777e-05
-3.56188e-05
-1.31505e-05
-4.48218e-05
-1.0805e-05
-5.55442e-05
-7.17314e-06
-6.92332e-05
-8.88743e-05
-2.62671e-06
1.06215e-05
-3.3314e-06
5.17235e-06
-3.86985e-06
-5.79169e-07
-4.25055e-06
-6.64766e-06
-4.47732e-06
-1.30791e-05
-4.55938e-06
-1.99839e-05
-4.5172e-06
-2.74974e-05
-4.3819e-06
-3.57559e-05
-4.19162e-06
-4.50126e-05
-3.94458e-06
-5.57938e-05
-3.24629e-06
-6.99342e-05
-9.21212e-05
1.15152e-05
1.14907e-05
1.07235e-05
5.96337e-06
1.00263e-05
1.17345e-07
9.40013e-06
-6.02254e-06
8.80858e-06
-1.24885e-05
8.20318e-06
-1.93799e-05
7.51615e-06
-2.68115e-05
6.6299e-06
-3.48703e-05
5.38714e-06
-4.37722e-05
3.61074e-06
-5.40181e-05
1.12182e-06
-6.74464e-05
-9.10007e-05
2.49771e-05
1.23625e-05
2.41574e-05
6.78247e-06
2.3405e-05
8.68883e-07
2.26865e-05
-5.30502e-06
2.19445e-05
-1.17476e-05
2.11001e-05
-1.85364e-05
2.00308e-05
-2.57431e-05
1.85008e-05
-3.33414e-05
1.61758e-05
-4.14468e-05
1.25848e-05
-5.04284e-05
7.28061e-06
-6.21441e-05
-8.37202e-05
3.76659e-05
1.31974e-05
3.68876e-05
7.56022e-06
3.61939e-05
1.5617e-06
3.55575e-05
-4.66939e-06
3.49224e-05
-1.11135e-05
3.41977e-05
-1.78123e-05
3.32114e-05
-2.47574e-05
3.15632e-05
-3.16931e-05
2.86785e-05
-3.8563e-05
2.37194e-05
-4.54695e-05
1.52968e-05
-5.37214e-05
-6.84241e-05
4.95232e-05
1.39755e-05
4.88429e-05
8.23951e-06
4.83205e-05
2.0829e-06
4.79552e-05
-4.30516e-06
4.77218e-05
-1.08812e-05
4.75421e-05
-1.76333e-05
4.72129e-05
-2.44288e-05
4.61262e-05
-3.06068e-05
4.34986e-05
-3.59353e-05
3.80718e-05
-4.00427e-05
2.64202e-05
-4.20704e-05
-4.20036e-05
6.05544e-05
1.47724e-05
6.00118e-05
8.78122e-06
5.97694e-05
2.32453e-06
5.98992e-05
-4.43603e-06
6.0416e-05
-1.13986e-05
6.12534e-05
-1.84712e-05
6.2169e-05
-2.53447e-05
6.23294e-05
-3.07672e-05
6.1026e-05
-3.4632e-05
5.66325e-05
-3.56493e-05
4.40905e-05
-2.95281e-05
2.08654e-06
7.28123e-06
-7.28335e-06
1.24805e-05
-5.20074e-06
1.52007e-05
-2.72385e-06
1.35452e-05
1.65382e-06
5.90229e-06
7.63968e-06
-1.03986e-05
1.63006e-05
-3.49227e-05
2.45225e-05
-5.58736e-05
2.09512e-05
-7.27447e-05
1.68704e-05
-8.59916e-05
1.3247e-05
-9.61167e-05
1.01248e-05
7.04522e-06
-0.000103162
3.59614e-06
-1.08821e-05
3.09162e-06
-4.69781e-06
-3.43407e-06
3.79938e-06
-1.78888e-05
1.61076e-05
-3.72591e-05
2.70093e-05
-5.28293e-05
3.18707e-05
-6.00233e-05
3.17161e-05
-6.6288e-05
2.7216e-05
-7.22166e-05
2.27987e-05
-7.73746e-05
1.8405e-05
-8.12094e-05
1.39595e-05
9.84199e-06
-8.40062e-05
-1.51653e-06
-9.36616e-06
-7.55453e-06
1.33934e-06
-1.94233e-05
1.56673e-05
-3.27101e-05
2.93942e-05
-4.24214e-05
3.67202e-05
-4.82986e-05
3.77481e-05
-5.1949e-05
3.53664e-05
-5.553e-05
3.07971e-05
-5.85775e-05
2.58462e-05
-6.1083e-05
2.09106e-05
-6.3199e-05
1.60755e-05
1.15418e-05
-6.48988e-05
-5.79148e-06
-3.57576e-06
-1.41164e-05
9.66347e-06
-2.28992e-05
2.44497e-05
-3.01559e-05
3.6651e-05
-3.5013e-05
4.15775e-05
-3.82463e-05
4.09817e-05
-4.02713e-05
3.73916e-05
-4.19537e-05
3.248e-05
-4.35851e-05
2.74777e-05
-4.5187e-05
2.25128e-05
-4.6715e-05
1.76035e-05
1.2828e-05
-4.8001e-05
-6.60326e-06
3.02443e-06
-1.28821e-05
1.59407e-05
-1.82394e-05
2.98069e-05
-2.22314e-05
4.06425e-05
-2.45676e-05
4.39143e-05
-2.57361e-05
4.21502e-05
-2.64879e-05
3.81443e-05
-2.74127e-05
3.34046e-05
-2.84891e-05
2.85549e-05
-2.96569e-05
2.36804e-05
-3.08401e-05
1.87873e-05
1.38929e-05
-3.19053e-05
-5.25514e-06
8.2712e-06
-9.38039e-06
2.00643e-05
-1.19734e-05
3.23969e-05
-1.30488e-05
4.17181e-05
-1.31051e-05
4.39694e-05
-1.28174e-05
4.18631e-05
-1.27635e-05
3.80892e-05
-1.3096e-05
3.37376e-05
-1.3751e-05
2.92089e-05
-1.4626e-05
2.45558e-05
-1.5609e-05
1.97694e-05
1.48486e-05
-1.65646e-05
-3.45809e-06
1.17263e-05
-5.49767e-06
2.21e-05
-5.48414e-06
3.23829e-05
-3.90518e-06
4.01372e-05
-1.85271e-06
4.19158e-05
-2.52417e-07
4.02612e-05
6.53031e-07
3.7183e-05
8.89602e-07
3.34998e-05
6.05334e-07
2.94926e-05
-4.02103e-08
2.52003e-05
-8.90296e-07
2.06189e-05
1.57515e-05
-1.79411e-06
-2.67223e-06
1.43948e-05
-2.78892e-06
2.22162e-05
-1.6193e-07
2.97535e-05
4.28973e-06
3.5684e-05
8.50327e-06
3.7701e-05
1.15916e-05
3.71716e-05
1.34735e-05
3.53001e-05
1.43351e-05
3.26372e-05
1.44278e-05
2.93992e-05
1.39918e-05
2.56356e-05
1.32415e-05
2.13685e-05
1.66289e-05
1.23635e-05
-2.93013e-06
1.73241e-05
-1.80455e-06
2.10886e-05
3.60659e-06
2.43422e-05
1.08268e-05
2.84629e-05
1.73784e-05
3.11486e-05
2.2234e-05
3.23151e-05
2.53323e-05
3.22011e-05
2.69717e-05
3.09971e-05
2.7517e-05
2.88534e-05
2.73166e-05
2.58354e-05
2.66692e-05
2.20155e-05
1.74778e-05
2.58197e-05
-5.82385e-06
2.31477e-05
-1.06699e-06
1.63326e-05
7.97058e-06
1.5304e-05
1.73986e-05
1.90348e-05
2.56827e-05
2.28639e-05
3.20022e-05
2.59951e-05
3.62465e-05
2.79562e-05
3.86823e-05
2.85607e-05
3.97237e-05
2.78115e-05
3.97969e-05
2.57619e-05
3.92721e-05
2.254e-05
1.82824e-05
3.84671e-05
-1.47498e-07
2.32955e-05
1.00417e-05
6.14283e-06
2.06178e-05
4.72833e-06
2.98331e-05
9.81948e-06
3.74868e-05
1.52098e-05
4.34245e-05
2.00569e-05
4.76108e-05
2.37692e-05
5.01748e-05
2.59961e-05
5.13664e-05
2.66193e-05
5.15421e-05
2.55856e-05
5.10604e-05
2.30212e-05
1.90753e-05
5.02668e-05
3.34138e-05
-1.01184e-05
4.40845e-05
-4.52752e-06
4.94313e-05
-6.1845e-07
5.38233e-05
5.42745e-06
5.73142e-05
1.1719e-05
6.00059e-05
1.73648e-05
6.19414e-05
2.18334e-05
6.30823e-05
2.48547e-05
6.34177e-05
2.62834e-05
6.30906e-05
2.59124e-05
6.22962e-05
2.38151e-05
6.13171e-05
2.00538e-05
-0.000107555
4.39279e-06
-0.000109308
1.75312e-06
-0.000108715
-5.93577e-07
-0.000105848
-2.86758e-06
-0.00010076
-5.08811e-06
-9.32298e-05
-7.53029e-06
-8.31778e-05
-1.00521e-05
-7.03483e-05
-1.28298e-05
-5.45711e-05
-1.57773e-05
-3.58315e-05
-1.87398e-05
-1.56369e-05
-2.01948e-05
-1.56371e-05
-8.56346e-05
6.02112e-06
-8.62965e-05
2.41483e-06
-8.58662e-05
-1.02391e-06
-8.42654e-05
-4.46869e-06
-8.12443e-05
-8.10942e-06
-7.67591e-05
-1.20157e-05
-7.05642e-05
-1.62474e-05
-6.24727e-05
-2.09215e-05
-5.21012e-05
-2.6149e-05
-3.89662e-05
-3.18749e-05
-2.26432e-05
-3.65181e-05
-3.82803e-05
-6.60888e-05
7.2112e-06
-6.66547e-05
2.9806e-06
-6.64038e-05
-1.2748e-06
-6.51727e-05
-5.69998e-06
-6.28845e-05
-1.03977e-05
-5.94487e-05
-1.54519e-05
-5.47209e-05
-2.09753e-05
-4.85593e-05
-2.70833e-05
-4.08022e-05
-3.39062e-05
-3.1051e-05
-4.16263e-05
-1.80934e-05
-4.94758e-05
-5.63737e-05
-4.89104e-05
8.12066e-06
-4.9315e-05
3.38529e-06
-4.91104e-05
-1.47928e-06
-4.82121e-05
-6.59832e-06
-4.65552e-05
-1.20546e-05
-4.4099e-05
-1.79082e-05
-4.07493e-05
-2.43251e-05
-3.64143e-05
-3.14186e-05
-3.09441e-05
-3.93766e-05
-2.41631e-05
-4.84073e-05
-1.47706e-05
-5.88681e-05
-7.11446e-05
-3.27282e-05
8.94388e-06
-3.32087e-05
3.86576e-06
-3.32674e-05
-1.42068e-06
-3.28377e-05
-7.02803e-06
-3.18934e-05
-1.29993e-05
-3.03999e-05
-1.94019e-05
-2.83003e-05
-2.64252e-05
-2.55221e-05
-3.41969e-05
-2.19461e-05
-4.29528e-05
-1.71973e-05
-5.31558e-05
-1.05111e-05
-6.5556e-05
-8.16558e-05
-1.73795e-05
9.75821e-06
-1.79679e-05
4.45367e-06
-1.82668e-05
-1.12221e-06
-1.82727e-05
-7.0231e-06
-1.79823e-05
-1.32902e-05
-1.73451e-05
-2.00402e-05
-1.63507e-05
-2.74202e-05
-1.49702e-05
-3.55783e-05
-1.31467e-05
-4.47768e-05
-1.0807e-05
-5.54981e-05
-7.17045e-06
-6.91924e-05
-8.8828e-05
-2.63302e-06
1.05963e-05
-3.33444e-06
5.15414e-06
-3.87005e-06
-5.87828e-07
-4.2488e-06
-6.64551e-06
-4.4752e-06
-1.30653e-05
-4.55815e-06
-1.99585e-05
-4.51794e-06
-2.74617e-05
-4.38476e-06
-3.57127e-05
-4.19705e-06
-4.49663e-05
-3.94866e-06
-5.57464e-05
-3.25435e-06
-6.98908e-05
-9.20826e-05
1.14961e-05
1.14629e-05
1.0707e-05
5.94241e-06
1.00123e-05
1.05809e-07
9.38811e-06
-6.02242e-06
8.79728e-06
-1.24756e-05
8.19166e-06
-1.9354e-05
7.50331e-06
-2.67743e-05
6.61557e-06
-3.48256e-05
5.37336e-06
-4.37243e-05
3.5976e-06
-5.39732e-05
1.11285e-06
-6.74056e-05
-9.09701e-05
2.49482e-05
1.23339e-05
2.413e-05
6.75985e-06
2.33795e-05
8.5529e-07
2.26627e-05
-5.30652e-06
2.19215e-05
-1.17354e-05
2.10769e-05
-1.85101e-05
2.00068e-05
-2.57047e-05
1.84765e-05
-3.32955e-05
1.61519e-05
-4.14e-05
1.25648e-05
-5.0385e-05
7.2674e-06
-6.21083e-05
-8.37026e-05
3.76308e-05
1.31697e-05
3.68525e-05
7.53725e-06
3.61599e-05
1.54719e-06
3.55244e-05
-4.67185e-06
3.489e-05
-1.11014e-05
3.41651e-05
-1.77855e-05
3.31783e-05
-2.4718e-05
3.15302e-05
-3.16473e-05
2.86477e-05
-3.85168e-05
2.36927e-05
-4.54295e-05
1.52786e-05
-5.3694e-05
-6.84219e-05
4.94853e-05
1.39503e-05
4.88038e-05
8.21768e-06
4.82812e-05
2.06869e-06
4.79158e-05
-4.30735e-06
4.76824e-05
-1.08686e-05
4.75026e-05
-1.76059e-05
4.71737e-05
-2.43891e-05
4.60887e-05
-3.0562e-05
4.34639e-05
-3.58915e-05
3.80413e-05
-4.00065e-05
2.64012e-05
-4.20509e-05
-4.20202e-05
6.05157e-05
1.47509e-05
5.99712e-05
8.76157e-06
5.97274e-05
2.31156e-06
5.98563e-05
-4.43661e-06
6.03722e-05
-1.13848e-05
6.12101e-05
-1.84437e-05
6.21277e-05
-2.53066e-05
6.22923e-05
-3.07264e-05
6.09931e-05
-3.45918e-05
5.66039e-05
-3.56161e-05
4.40684e-05
-2.95156e-05
2.04971e-06
8.77016e-05
-7.93639e-06
-8.98737e-05
8.78097e-05
-4.61817e-06
8.59108e-05
1.3044e-06
8.39757e-05
7.38678e-06
8.226e-05
1.34558e-05
8.07701e-05
1.8872e-05
7.94097e-05
2.32082e-05
7.80656e-05
2.62115e-05
7.66066e-05
2.77531e-05
7.50403e-05
2.74859e-05
7.33934e-05
2.54645e-05
2.154e-05
7.19016e-05
0.000107397
-9.7377e-06
-0.000105596
0.000107069
-4.28958e-06
0.000105883
2.49052e-06
0.000103956
9.31362e-06
0.000101531
1.58804e-05
9.87478e-05
2.16549e-05
9.57767e-05
2.61791e-05
9.27485e-05
2.92394e-05
8.96966e-05
3.08046e-05
8.67679e-05
3.04142e-05
8.40018e-05
2.82301e-05
2.37838e-05
8.17575e-05
0.000118872
-1.04812e-05
-0.000118129
0.000118602
-4.0197e-06
0.000117729
3.36207e-06
0.000116192
1.08508e-05
0.000114033
1.80388e-05
0.00011129
2.43964e-05
0.000108068
2.94014e-05
0.000104479
3.28273e-05
0.000100647
3.46365e-05
9.68432e-05
3.42169e-05
9.31805e-05
3.1892e-05
2.63877e-05
9.05754e-05
0.000126773
-0.000127077
-1.01765e-05
0.000125961
-3.20833e-06
0.000124679
4.64418e-06
0.000122894
1.26359e-05
0.000120601
2.0332e-05
0.000117838
2.71588e-05
0.000114619
3.26205e-05
0.000110976
3.64696e-05
0.000107056
3.85563e-05
0.00010328
3.79924e-05
0.000100141
3.50305e-05