/*--------------------------------*- C++ -*----------------------------------*\
| =========                 |                                                 |
| \\      /  F ield         | OpenFOAM: The Open Source CFD Toolbox           |
|  \\    /   O peration     | Version:  v1912                                 |
|   \\  /    A nd           | Website:  www.openfoam.com                      |
|    \\/     M anipulation  |                                                 |
\*---------------------------------------------------------------------------*/
FoamFile
{
    version     2.0;
    format      ascii;
    class       volVectorField;
    location    "150";
    object      U;
}
// * * * * * * * * * * * * * * * * * * * * * * * * * * * * * * * * * * * * * //

dimensions      [0 1 -1 0 0 0 0];


internalField   nonuniform List<vector> 
3072
(
(-0.0468684 2.22057 0)
(-0.00679763 1.8894 0)
(0.0852956 1.63825 1.17315e-19)
(0.210316 1.57344 1.92379e-18)
(0.435917 1.78249 -1.95938e-18)
(1.38662 1.77218 7.67044e-19)
(2.92372 2.03552 9.76419e-20)
(3.46634 2.90633 1.21013e-18)
(3.81657 3.28928 -2.50948e-18)
(4.27191 3.68087 1.75215e-18)
(4.68427 3.76398 -2.98252e-19)
(5.07258 3.82896 1.94012e-19)
(-0.654526 2.80853 -1.74457e-19)
(-0.347818 2.32043 -1.33772e-19)
(0.184462 2.45237 2.92769e-19)
(1.14008 2.59448 0)
(2.33462 3.09708 2.99472e-19)
(3.21554 3.46196 -4.43469e-19)
(3.58322 3.58564 0)
(3.63904 3.77528 0)
(3.72116 3.87786 0)
(3.87266 3.9927 7.13512e-19)
(3.9993 4.05301 -6.13273e-19)
(4.15795 4.06404 7.68464e-19)
(-0.508724 3.16403 1.16771e-19)
(0.239794 2.81327 0)
(1.24697 3.07552 0)
(2.33845 3.35248 -1.50563e-18)
(3.17163 3.55776 6.01911e-19)
(3.58957 3.55195 -1.49984e-18)
(3.77699 3.50418 1.44924e-18)
(3.85791 3.50536 0)
(3.9221 3.49151 0)
(3.99052 3.47648 -6.59193e-19)
(4.06085 3.44525 -3.78873e-19)
(4.14981 3.39953 1.6773e-18)
(-0.215284 3.40977 -1.32688e-18)
(0.687377 3.29629 -2.1328e-18)
(1.74015 3.50116 9.27886e-19)
(2.70837 3.58446 -1.0276e-18)
(3.28284 3.52856 2.91588e-18)
(3.56211 3.46335 -2.42962e-18)
(3.67897 3.37261 -1.42028e-18)
(3.696 3.30202 -4.40227e-18)
(3.70536 3.25338 -1.44917e-20)
(3.72886 3.21733 2.11536e-18)
(3.76676 3.18369 2.20217e-18)
(3.82166 3.14637 -1.71082e-18)
(0.13069 3.55128 0)
(1.01518 3.54788 8.22686e-19)
(1.98657 3.62872 -1.54367e-18)
(2.79983 3.54935 2.49659e-18)
(3.24695 3.43887 2.83545e-19)
(3.42533 3.28894 1.62345e-18)
(3.46673 3.16586 1.66079e-18)
(3.4717 3.07397 1.42559e-18)
(3.4818 3.00244 -2.76522e-18)
(3.50166 2.94609 2.42251e-18)
(3.53215 2.90027 -3.10044e-18)
(3.57322 2.85888 4.2149e-18)
(0.387636 3.66934 -2.76702e-18)
(1.21282 3.71546 1.11384e-18)
(2.06317 3.69058 3.81174e-18)
(2.75467 3.50845 0)
(3.10589 3.31062 -4.62326e-18)
(3.21654 3.11643 5.00568e-18)
(3.24434 2.96639 0)
(3.25071 2.85074 -3.64325e-18)
(3.25998 2.76234 3.12335e-18)
(3.27619 2.6952 0)
(3.29996 2.64456 2.12774e-19)
(3.33043 2.6049 2.69917e-18)
(0.561748 3.80448 0)
(1.29778 3.87686 -2.8388e-18)
(2.02824 3.74856 2.19427e-18)
(2.61879 3.48896 0)
(2.88515 3.21198 -3.1191e-18)
(2.9796 2.97215 6.0254e-19)
(3.01098 2.78563 4.88167e-18)
(3.02475 2.64419 4.07981e-18)
(3.03823 2.5387 -3.53548e-18)
(3.05522 2.46153 3.31171e-18)
(3.07633 2.40667 -2.81515e-18)
(3.10091 2.36847 -7.65267e-18)
(0.662399 4.00098 0)
(1.29492 4.09104 2.82069e-18)
(1.90644 3.86879 -4.04586e-18)
(2.38003 3.53209 4.45623e-18)
(2.62141 3.17044 0)
(2.72483 2.86841 -6.22804e-18)
(2.7724 2.63545 5.45397e-18)
(2.80047 2.46213 -4.19044e-20)
(2.82305 2.33601 -7.99278e-18)
(2.84452 2.24708 -3.49975e-18)
(2.86602 2.18737 -1.61213e-19)
(2.88753 2.1501 5.96275e-18)
(0.726156 4.19977 0)
(1.26225 4.38077 -3.91256e-18)
(1.71527 4.07406 -6.19569e-18)
(2.09288 3.65177 -4.66626e-18)
(2.32313 3.20818 8.92694e-18)
(2.45414 2.82791 0)
(2.53128 2.53336 0)
(2.58175 2.31635 0)
(2.61927 2.16188 0)
(2.64892 2.05699 3.87127e-18)
(2.67315 1.99022 -3.66322e-18)
(2.69339 1.95245 3.42752e-18)
(0.833659 4.60506 0)
(1.13226 4.71512 2.93449e-18)
(1.4322 4.27166 -6.44779e-19)
(1.74376 3.771 5.08211e-18)
(1.98508 3.27264 4.84323e-18)
(2.15849 2.83038 -7.63836e-18)
(2.28102 2.47685 0)
(2.3661 2.21209 -2.11009e-19)
(2.42656 2.02383 -1.56591e-17)
(2.46972 1.89749 0)
(2.50031 1.81977 8.70219e-18)
(2.52124 1.77922 -3.89553e-18)
(1.20053 4.61264 0)
(0.92475 4.62438 3.14132e-18)
(1.02163 4.11919 9.72043e-18)
(1.31486 3.61127 -8.42529e-18)
(1.59524 3.16069 -1.14299e-17)
(1.82757 2.74249 1.72373e-17)
(2.00936 2.39073 -1.80975e-19)
(2.14349 2.11122 -6.29844e-18)
(2.23876 1.9041 5.07957e-18)
(2.30336 1.76262 -1.04886e-17)
(2.34566 1.67539 -1.409e-17)
(2.37094 1.63157 1.3742e-17)
(0.190373 3.6407 -1.2875e-18)
(0.329971 3.54501 -1.08939e-17)
(0.54079 3.21077 1.87603e-18)
(0.868463 2.90433 0)
(1.19417 2.64575 0)
(1.48378 2.38523 1.58545e-19)
(1.7225 2.13971 1.64927e-17)
(1.90919 1.92386 1.03386e-17)
(2.04812 1.7487 0)
(2.14422 1.62132 9.63028e-18)
(2.2063 1.54064 0)
(2.24107 1.502 4.87686e-19)
(5.36994 3.71313 3.55961e-18)
(5.6097 3.57196 -1.80596e-18)
(5.73943 3.33097 9.67471e-19)
(5.79646 3.07837 -1.72247e-19)
(5.75549 2.76942 7.6229e-20)
(5.61837 2.46725 0)
(5.36532 2.15031 0)
(5.00214 1.86026 5.58651e-19)
(4.51773 1.58455 -6.55203e-19)
(3.85467 1.30486 0)
(3.14047 0.938346 0)
(2.78692 0.186357 1.61134e-20)
(4.31517 4.01204 -2.0601e-20)
(4.47486 3.91076 0)
(4.6227 3.75423 -9.08461e-19)
(4.74571 3.55499 -3.33279e-19)
(4.81 3.33653 -8.38957e-20)
(4.81052 3.1113 1.43156e-18)
(4.73591 2.89312 -2.46249e-18)
(4.58412 2.70251 4.32673e-19)
(4.35375 2.56152 0)
(3.9178 2.45855 0)
(3.47158 2.36635 0)
(3.38876 2.11381 5.4606e-19)
(4.24483 3.33275 6.08912e-19)
(4.33585 3.24905 -1.75214e-18)
(4.40937 3.15243 4.2957e-19)
(4.45335 3.04957 1.26625e-18)
(4.45989 2.94653 -1.33042e-18)
(4.42405 2.85443 0)
(4.34078 2.78401 0)
(4.21023 2.75056 -9.97215e-20)
(4.03908 2.77177 7.80838e-19)
(3.76609 2.8514 0)
(3.41726 2.92136 0)
(3.46061 2.91433 -3.13843e-19)
(3.88442 3.09985 2.61348e-19)
(3.94602 3.0444 2.11988e-18)
(3.99727 2.98265 1.53931e-18)
(4.03 2.92103 -1.55564e-18)
(4.03907 2.86688 0)
(4.02222 2.82892 1.00481e-18)
(3.97658 2.81756 0)
(3.90191 2.84378 1.85447e-18)
(3.80641 2.92294 -6.40007e-19)
(3.67429 3.07317 0)
(3.39649 3.28986 -2.81246e-19)
(3.66081 3.59962 2.80112e-19)
(3.61908 2.81858 -1.63296e-18)
(3.66345 2.77926 0)
(3.70109 2.74306 0)
(3.72689 2.71606 0)
(3.73872 2.7027 0)
(3.73833 2.70677 -1.86741e-18)
(3.72279 2.74104 -9.57431e-20)
(3.69307 2.81366 -9.47957e-19)
(3.65331 2.93821 0)
(3.6129 3.13128 -7.77323e-19)
(3.3994 3.42321 2.91677e-19)
(3.79782 3.87783 -7.12117e-20)
(3.36414 2.5731 -1.81966e-19)
(3.39737 2.5484 -4.26037e-18)
(3.42726 2.53262 1.92482e-18)
(3.45169 2.52882 -1.26186e-20)
(3.47336 2.54059 1.48309e-19)
(3.49091 2.57353 2.93492e-18)
(3.5048 2.63524 -9.94797e-20)
(3.51755 2.73395 -3.42671e-18)
(3.5334 2.88318 -1.415e-18)
(3.55789 3.10818 6.41106e-19)
(3.45397 3.44985 -9.54154e-19)
(3.96406 4.04342 -2.07155e-19)
(3.12719 2.3432 7.19713e-18)
(3.1536 2.32915 2.3111e-18)
(3.17975 2.32695 0)
(3.20681 2.33834 0)
(3.23655 2.36603 1.45643e-19)
(3.27017 2.41484 -2.22775e-18)
(3.30987 2.49091 3.56352e-18)
(3.36008 2.60067 -9.25494e-20)
(3.42603 2.75467 1.23523e-18)
(3.51925 2.97384 0)
(3.55249 3.31893 -1.79701e-19)
(4.05071 3.97768 -7.39849e-20)
(2.9087 2.13003 -2.81818e-18)
(2.93018 2.12384 -2.52195e-18)
(2.95353 2.13082 2.71401e-18)
(2.98149 2.15127 -2.51864e-18)
(3.01676 2.18722 1.0775e-20)
(3.06201 2.2428 5.10935e-18)
(3.12111 2.3228 -2.36026e-18)
(3.20085 2.43162 1.38512e-18)
(3.30974 2.57752 0)
(3.46496 2.77939 8.66909e-19)
(3.59229 3.10121 3.51145e-19)
(4.14781 3.79518 -5.8472e-19)
(2.71047 1.93599 3.1904e-18)
(2.72722 1.93511 -3.06594e-18)
(2.74663 1.94765 -2.80871e-18)
(2.77247 1.97242 -5.87792e-18)
(2.80822 2.01064 5.67286e-18)
(2.8574 2.0656 -5.48053e-18)
(2.92514 2.14065 0)
(3.02164 2.23734 -1.35426e-18)
(3.16015 2.36053 0)
(3.36468 2.52385 0)
(3.59943 2.78738 0)
(4.13513 3.42289 2.71501e-19)
(2.53459 1.76478 3.69313e-18)
(2.54581 1.76708 -7.25607e-18)
(2.55913 1.78262 7.00629e-18)
(2.57865 1.80849 6.71288e-18)
(2.60785 1.84495 3.2425e-18)
(2.65043 1.89441 0)
(2.71187 1.95809 0)
(2.80698 2.03313 3.32908e-18)
(2.95649 2.12052 0)
(3.19665 2.22523 -1.00276e-18)
(3.51467 2.38972 5.9296e-19)
(4.06491 2.87812 -8.65129e-19)
(2.38192 1.61868 -8.7419e-18)
(2.3867 1.62314 7.81283e-18)
(2.39145 1.64014 -7.53645e-18)
(2.39961 1.66538 -1.8983e-17)
(2.41336 1.69817 -2.2602e-19)
(2.43587 1.74002 1.17535e-19)
(2.47194 1.78932 -3.73331e-18)
(2.54246 1.83584 -3.44711e-18)
(2.67761 1.87598 0)
(2.92386 1.90183 3.12672e-18)
(3.30233 1.90005 8.18822e-19)
(3.83289 1.93752 -1.20421e-18)
(2.25177 1.49674 -4.50436e-19)
(2.25049 1.50377 0)
(2.24326 1.52248 0)
(2.23316 1.54688 4.0139e-18)
(2.2198 1.57589 1.22351e-17)
(2.20518 1.61053 -3.96783e-18)
(2.19432 1.64698 -2.1749e-19)
(2.21676 1.66519 -2.03355e-18)
(2.30828 1.65687 -1.91492e-18)
(2.50313 1.59413 -1.9681e-18)
(2.90231 1.37462 0)
(3.26055 0.483764 1.52847e-18)
(2.21823 0.0382615 5.73853e-22)
(1.88653 0.000726609 0)
(1.63659 -0.0891937 -1.1663e-19)
(1.57129 -0.213886 0)
(1.77827 -0.43428 -9.26773e-19)
(1.77366 -1.37492 7.6823e-19)
(2.02183 -2.91259 0)
(2.8972 -3.46345 1.06234e-18)
(3.28043 -3.8104 -2.18251e-18)
(3.67346 -4.26761 1.85582e-18)
(3.75708 -4.67881 -2.53337e-19)
(3.82309 -5.06829 -1.95612e-19)
(2.80838 0.650949 -9.45348e-20)
(2.31916 0.346783 6.31831e-20)
(2.45012 -0.17904 2.6516e-20)
(2.58963 -1.1281 0)
(3.08795 -2.32229 -3.01483e-19)
(3.457 -3.20547 1.90723e-19)
(3.58271 -3.57941 0)
(3.76929 -3.63956 8.2611e-19)
(3.87198 -3.71915 -2.07846e-18)
(3.98693 -3.87131 1.15934e-18)
(4.0474 -3.99727 7.57794e-20)
(4.05886 -4.15604 -2.00736e-18)
(3.16347 0.509849 -1.17121e-19)
(2.81034 -0.23398 0)
(3.07027 -1.23815 -1.02076e-18)
(3.3474 -2.32985 0)
(3.55274 -3.16658 0)
(3.54848 -3.58787 -6.54572e-19)
(3.50012 -3.7763 3.1475e-18)
(3.50174 -3.85661 -2.35173e-18)
(3.48723 -3.92026 7.37144e-19)
(3.47221 -3.98913 0)
(3.44085 -4.05915 1.4693e-18)
(3.39515 -4.14808 -8.08116e-19)
(3.40989 0.217618 8.43384e-19)
(3.2944 -0.681958 1.1805e-18)
(3.49874 -1.73346 6.67022e-19)
(3.5827 -2.70223 1.53723e-18)
(3.52701 -3.27925 -1.37595e-18)
(3.46114 -3.56005 -8.83463e-19)
(3.37008 -3.67761 0)
(3.29922 -3.69483 0)
(3.25012 -3.70414 1.43299e-18)
(3.21365 -3.72763 0)
(3.17975 -3.7654 3.49651e-19)
(3.14228 -3.82026 6.58038e-19)
(3.55256 -0.126634 1.78671e-18)
(3.54769 -1.00975 -6.59902e-19)
(3.62885 -1.98037 -1.54636e-18)
(3.54991 -2.79451 0)
(3.43837 -3.24353 0)
(3.28838 -3.42349 2.11755e-18)
(3.16442 -3.46535 0)
(3.07202 -3.47037 -3.29218e-18)
(3.00001 -3.48046 -1.21403e-18)
(2.94321 -3.5004 2.4278e-18)
(2.89703 -3.53094 -3.10742e-18)
(2.85538 -3.57209 2.00823e-18)
(3.67087 -0.383489 -1.51341e-18)
(3.71618 -1.20767 -9.88278e-19)
(3.69133 -2.05782 1.71055e-18)
(3.50999 -2.74958 1.74739e-19)
(3.31177 -3.10278 2.34387e-18)
(3.11691 -3.21451 -4.8066e-18)
(2.96608 -3.24278 4.4337e-18)
(2.8498 -3.24934 3.26404e-19)
(2.76085 -3.25875 0)
(2.69321 -3.27515 0)
(2.64211 -3.29911 5.15727e-18)
(2.60207 -3.32978 -2.51318e-20)
(3.80641 -0.558038 -6.65546e-20)
(3.87862 -1.29327 -1.57446e-18)
(3.75085 -2.02334 0)
(3.4914 -2.61435 -2.65199e-18)
(3.21428 -2.88205 3.32949e-18)
(2.97375 -2.97744 8.85512e-18)
(2.78651 -3.00934 5.2542e-18)
(2.6444 -3.02346 5.7883e-19)
(2.5383 -3.03723 -7.26292e-18)
(2.46055 -3.05453 3.13605e-18)
(2.40515 -3.07595 3.18391e-18)
(2.36646 -3.10082 1.4516e-19)
(4.00307 -0.660399 1.96192e-19)
(4.09341 -1.29152 2.82451e-18)
(3.87221 -1.90206 0)
(3.53566 -2.37606 -4.4638e-18)
(3.17389 -2.61846 -3.54038e-18)
(2.87123 -2.72269 4.49899e-19)
(2.63759 -2.77087 -1.05982e-17)
(2.4636 -2.79939 2.51014e-19)
(2.33681 -2.8224 -2.53324e-19)
(2.24723 -2.84427 3.72468e-18)
(2.18689 -2.86618 -2.86717e-18)
(2.14901 -2.88806 1.84544e-19)
(4.20118 -0.725698 -3.92439e-18)
(4.38302 -1.26003 1.63671e-18)
(4.07734 -1.71192 -8.99638e-18)
(3.65585 -2.08937 4.65902e-18)
(3.21251 -2.32026 0)
(2.83191 -2.45203 0)
(2.53678 -2.52988 6.30477e-18)
(2.31911 -2.58095 1.0571e-17)
(2.16394 -2.61901 -4.58154e-18)
(2.05834 -2.64919 -3.87059e-18)
(1.99085 -2.6739 -3.51705e-18)
(1.95236 -2.69459 0)
(4.60564 -0.833883 4.02243e-20)
(4.71591 -1.13067 4.43269e-18)
(4.27372 -1.42952 1.09583e-17)
(3.77435 -1.74086 0)
(3.27684 -1.98251 8.64729e-18)
(2.8348 -2.15652 0)
(2.48108 -2.27977 1.99789e-19)
(2.21585 -2.36556 -5.6078e-18)
(2.02698 -2.42667 5.35727e-18)
(1.89995 -2.47045 0)
(1.82147 -2.50161 0)
(1.78012 -2.52307 -8.0771e-18)
(4.61252 -1.20049 -5.70044e-18)
(4.62455 -0.923783 3.1413e-18)
(4.1202 -1.02009 4.87928e-19)
(3.6134 -1.31275 -9.07084e-18)
(3.16386 -1.59314 -3.654e-18)
(2.74632 -1.82585 -3.47923e-18)
(2.39489 -2.00827 -6.40652e-18)
(2.11533 -2.14311 -1.76015e-17)
(1.90787 -2.23912 -5.08096e-18)
(1.76586 -2.30445 -1.04904e-17)
(1.67794 -2.3474 9.83409e-18)
(1.63334 -2.37331 8.68854e-18)
(3.64126 -0.190302 2.44728e-18)
(3.54512 -0.329237 -1.30462e-18)
(3.2112 -0.539584 1.94334e-19)
(2.90548 -0.866809 6.51333e-18)
(2.64784 -1.19244 0)
(2.38811 -1.48236 -5.84033e-18)
(2.14318 -1.72161 5.39612e-18)
(1.92764 -1.90896 4.91128e-18)
(1.7525 -2.04865 -1.54485e-17)
(1.62488 -2.14555 9.63302e-18)
(1.5437 -2.20834 -9.33662e-18)
(1.50441 -2.24384 0)
(3.70791 -5.36534 -1.85781e-18)
(3.56758 -5.60598 4.73561e-18)
(3.3272 -5.73585 -1.90041e-18)
(3.07542 -5.79336 -2.14433e-18)
(2.76703 -5.75272 1.77888e-18)
(2.46549 -5.61609 -2.25585e-19)
(2.14899 -5.36345 -1.01896e-20)
(1.85936 -5.00074 1.00442e-19)
(1.58391 -4.51672 -6.55247e-19)
(1.30441 -3.85396 0)
(0.937973 -3.14015 0)
(0.185947 -2.78661 1.60694e-20)
(4.00719 -4.313 6.72559e-20)
(3.90645 -4.47265 6.98249e-19)
(3.7505 -4.62035 -9.08594e-19)
(3.55165 -4.74366 0)
(3.33362 -4.80817 5.31255e-19)
(3.10881 -4.80897 0)
(2.89106 -4.73466 6.50725e-19)
(2.70087 -4.58319 1.58254e-18)
(2.56026 -4.3531 -1.36524e-18)
(2.4576 -3.91734 0)
(2.36559 -3.47142 0)
(2.1132 -3.38874 3.41917e-20)
(3.32844 -4.24298 2.90591e-19)
(3.24491 -4.33402 -2.8763e-19)
(3.1485 -4.40761 4.31857e-19)
(3.04596 -4.45176 0)
(2.94326 -4.45848 -5.89856e-19)
(2.85155 -4.42285 1.82103e-18)
(2.78151 -4.33981 -2.64492e-18)
(2.74847 -4.20949 -3.43072e-18)
(2.7701 -4.03857 2.22484e-18)
(2.85014 -3.76584 0)
(2.92034 -3.41718 3.46506e-19)
(2.91369 -3.46062 1.14871e-19)
(3.0957 -3.883 6.07295e-19)
(3.0403 -3.94467 -1.47688e-18)
(2.97866 -3.99604 1.54288e-18)
(2.91723 -4.02893 -1.55884e-18)
(2.86333 -4.03815 0)
(2.82571 -4.02147 1.0059e-18)
(2.8147 -3.97602 8.13027e-19)
(2.8413 -3.90151 5.52513e-19)
(2.92086 -3.80617 -1.27386e-18)
(3.07158 -3.67417 0)
(3.28871 -3.39652 -2.07355e-19)
(3.59886 -3.6609 3.1049e-19)
(2.81488 -3.61806 1.86419e-18)
(2.77545 -3.66259 -1.01496e-18)
(2.73923 -3.70041 0)
(2.71232 -3.72637 0)
(2.6991 -3.73836 8.94262e-19)
(2.70343 -3.73812 -8.46414e-19)
(2.73802 -3.72269 -1.73438e-19)
(2.81101 -3.69308 0)
(2.93598 -3.65338 -6.00984e-19)
(3.12948 -3.61292 7.77463e-19)
(3.42207 -3.39945 -6.2316e-19)
(3.87718 -3.79798 -1.09927e-19)
(2.56996 -3.36368 -4.31254e-18)
(2.54502 -3.39711 2.05727e-18)
(2.52907 -3.42721 4.01639e-18)
(2.52524 -3.45181 -1.27982e-20)
(2.53707 -3.47362 -5.02115e-18)
(2.57019 -3.49126 -2.17389e-18)
(2.63217 -3.5052 -1.65001e-19)
(2.73123 -3.51797 0)
(2.88087 -3.53378 0)
(3.10638 -3.5581 -6.41209e-19)
(3.44874 -3.45435 -5.63077e-19)
(4.04274 -3.96409 8.4325e-20)
(2.34076 -3.12737 2.44507e-18)
(2.32633 -3.15402 -4.84476e-18)
(2.32385 -3.18039 -2.11037e-18)
(2.33507 -3.20761 -1.47226e-19)
(2.36273 -3.23745 2.0419e-18)
(2.41164 -3.27109 2.05373e-18)
(2.48792 -3.31077 1.20575e-18)
(2.59799 -3.36088 1.18987e-18)
(2.75242 -3.42669 -1.35105e-18)
(2.97208 -3.51968 0)
(3.31793 -3.55274 7.32824e-19)
(3.97724 -4.05088 -2.2719e-19)
(2.12839 -2.90957 0)
(2.12171 -2.93133 2.52215e-18)
(2.12828 -2.95489 0)
(2.14844 -2.98299 -1.3698e-19)
(2.18425 -3.0183 1.09761e-20)
(2.23985 -3.0635 5.10493e-18)
(2.32001 -3.12247 -1.10249e-18)
(2.42912 -3.20201 -2.6858e-18)
(2.57541 -3.31062 -1.52373e-18)
(2.77779 -3.46554 8.66035e-19)
(3.10028 -3.59269 -1.45342e-18)
(3.79507 -4.14788 6.97303e-19)
(1.93525 -2.71206 3.18944e-18)
(1.93377 -2.7291 -3.06451e-18)
(1.94577 -2.74871 -3.07041e-18)
(1.97013 -2.77466 3.0006e-18)
(2.00811 -2.81038 2.83028e-18)
(2.06301 -2.85943 -8.40493e-18)
(2.13816 -2.92693 0)
(2.2351 -3.0231 1.35202e-18)
(2.35865 -3.16124 1.42961e-18)
(2.52247 -3.36538 0)
(2.7866 -3.59981 1.9167e-18)
(3.42293 -4.13533 -1.37912e-18)
(1.76495 -2.53687 0)
(1.76659 -2.54837 -7.24963e-18)
(1.78146 -2.56189 -3.75677e-18)
(1.80681 -2.58149 -6.45409e-18)
(1.84292 -2.61059 3.23688e-18)
(1.89224 -2.65292 3.05943e-18)
(1.95597 -2.71401 0)
(2.03123 -2.80868 0)
(2.11896 -2.9577 0)
(2.22406 -3.1974 0)
(2.38912 -3.51512 -5.87075e-19)
(2.87839 -4.06511 -8.21652e-20)
(1.6197 -2.3848 4.22569e-18)
(1.62346 -2.38985 3.75317e-18)
(1.6397 -2.39479 1.55716e-17)
(1.66433 -2.403 4.04262e-18)
(1.69669 -2.41658 1.50568e-17)
(1.73835 -2.43871 -3.64296e-18)
(1.78763 -2.47431 -3.72412e-18)
(1.83433 -2.54428 0)
(1.87476 -2.67887 -3.71121e-18)
(1.90095 -2.92463 -2.06068e-18)
(1.89961 -3.30274 -1.59839e-18)
(1.93799 -3.83303 -7.75306e-26)
(1.49831 -2.25514 0)
(1.5048 -2.25405 0)
(1.52272 -2.24702 -1.74232e-17)
(1.54642 -2.23693 -1.25304e-17)
(1.57497 -2.22332 -3.89749e-18)
(1.60935 -2.20822 0)
(1.6457 -2.1968 3.92082e-18)
(1.66409 -2.21855 0)
(1.656 -2.30951 -1.78568e-19)
(1.59351 -2.50395 1.9636e-18)
(1.37435 -2.90266 5.22479e-19)
(0.484284 -3.26071 3.00905e-18)
(0.0377776 -2.21795 7.0157e-20)
(0.000310272 -1.88662 2.72451e-19)
(-0.0894839 -1.63651 -3.15259e-19)
(-0.213873 -1.5717 3.06943e-19)
(-0.435993 -1.77963 0)
(-1.38023 -1.77284 9.7993e-20)
(-2.91806 -2.02825 0)
(-3.46528 -2.90163 2.16836e-19)
(-3.81411 -3.28521 2.10923e-18)
(-4.27059 -3.67771 -9.65661e-19)
(-4.68259 -3.76144 -2.70493e-18)
(-5.07161 -3.82705 1.79465e-18)
(0.650463 -2.80836 3.00999e-19)
(0.346115 -2.31935 -1.38265e-19)
(-0.180945 -2.45018 1.62791e-19)
(-1.13197 -2.59088 -1.45218e-19)
(-2.32759 -3.09088 -3.02299e-19)
(-3.21008 -3.4583 -8.94997e-20)
(-3.58162 -3.58384 -9.29164e-19)
(-3.64054 -3.77171 -1.62341e-18)
(-3.72129 -3.87465 2.59275e-18)
(-3.87314 -3.9898 -5.3518e-19)
(-3.99953 -4.05047 8.07168e-19)
(-4.15832 -4.06185 6.55657e-19)
(0.509302 -3.16326 -2.34789e-19)
(-0.235786 -2.81012 0)
(-1.24099 -3.07048 0)
(-2.33396 -3.34816 -6.25742e-19)
(-3.16994 -3.55376 0)
(-3.5903 -3.54914 -8.32342e-19)
(-3.77843 -3.50109 6.76304e-19)
(-3.85863 -3.50308 1.63624e-18)
(-3.92249 -3.48907 -1.06968e-18)
(-3.99109 -3.47425 -1.21331e-18)
(-4.06127 -3.44314 -1.84511e-18)
(-4.1502 -3.39765 1.67968e-18)
(0.217237 -3.40961 -1.68963e-18)
(-0.683855 -3.29408 -1.17784e-18)
(-1.7364 -3.49854 1.24275e-18)
(-2.7061 -3.58244 5.07757e-19)
(-3.28242 -3.52675 0)
(-3.56274 -3.46122 -2.77903e-18)
(-3.67999 -3.37042 2.36774e-18)
(-3.69697 -3.29984 0)
(-3.70621 -3.25115 2.03963e-18)
(-3.72966 -3.2151 -2.97127e-18)
(-3.76743 -3.18152 1.85316e-18)
(-3.82224 -3.14432 2.67404e-19)
(-0.126855 -3.55224 2.59652e-18)
(-1.01139 -3.54721 1.99973e-18)
(-1.98324 -3.62818 4.62245e-19)
(-2.79812 -3.54895 0)
(-3.2467 -3.4377 -1.6873e-18)
(-3.42612 -3.28778 3.45677e-18)
(-3.46773 -3.16422 0)
(-3.47261 -3.07216 -1.82602e-18)
(-3.48259 -3.00049 -1.55537e-18)
(-3.5024 -2.94406 2.4219e-18)
(-3.53281 -2.89823 0)
(-3.57382 -2.8569 -1.7392e-18)
(-0.383698 -3.67061 1.26626e-18)
(-1.20908 -3.71562 4.21748e-19)
(-2.06031 -3.69057 -1.70015e-18)
(-2.75302 -3.5087 -4.88917e-18)
(-3.1058 -3.31046 -1.19267e-19)
(-3.21712 -3.11578 5.00534e-18)
(-3.24511 -2.96528 0)
(-3.25149 -2.84932 5.60586e-18)
(-3.26073 -2.76071 -3.10878e-18)
(-3.27693 -2.69342 2.75645e-18)
(-3.30067 -2.64269 2.12554e-19)
(-3.33112 -2.603 2.52953e-20)
(-0.558131 -3.80617 -1.47424e-18)
(-1.29439 -3.87784 -1.08043e-18)
(-2.02559 -3.74972 0)
(-2.61737 -3.48981 5.64471e-18)
(-2.88489 -3.21246 -9.44503e-18)
(-2.97993 -2.97205 -2.02204e-19)
(-3.01153 -2.78506 -1.01237e-17)
(-3.02541 -2.64324 2.92945e-19)
(-3.03894 -2.53745 -3.53208e-18)
(-3.05597 -2.46006 -3.30816e-18)
(-3.07711 -2.40504 3.17704e-18)
(-3.10168 -2.36675 -2.62364e-18)
(-0.660077 -4.00287 -1.14729e-19)
(-1.29226 -4.09258 -1.4894e-18)
(-1.90392 -3.8709 0)
(-2.37861 -3.53375 4.45831e-18)
(-2.62097 -3.17161 3.3267e-18)
(-2.72495 -2.86894 2.91782e-18)
(-2.77282 -2.63547 -3.2426e-19)
(-2.80106 -2.46174 4.15881e-20)
(-2.82376 -2.33526 -4.1422e-18)
(-2.84532 -2.24603 -3.28114e-19)
(-2.86688 -2.18608 2.00978e-19)
(-2.88841 -2.14864 0)
(-0.725135 -4.20125 2.43722e-18)
(-1.26036 -4.3824 0)
(-1.71321 -4.07625 0)
(-2.09136 -3.65393 -4.6582e-18)
(-2.3224 -3.20998 4.00033e-18)
(-2.45401 -2.82914 -7.49206e-18)
(-2.53158 -2.53406 0)
(-2.58231 -2.3166 5.15835e-18)
(-2.62002 -2.16172 -2.4181e-19)
(-2.64982 -2.05647 3.86384e-18)
(-2.67413 -1.98937 -3.82016e-18)
(-2.69442 -1.95133 7.07356e-18)
(-0.833324 -4.60594 4.9961e-18)
(-1.13084 -4.71572 -1.50379e-18)
(-1.43035 -4.27311 -5.80079e-18)
(-1.74227 -3.77289 -9.79333e-18)
(-1.98421 -3.2746 0)
(-2.15822 -2.83204 7.07287e-18)
(-2.28125 -2.47812 -1.31266e-17)
(-2.36668 -2.21294 5.55726e-18)
(-2.42738 -2.02427 5.35027e-18)
(-2.47072 -1.89753 0)
(-2.50143 -1.81942 -4.6286e-18)
(-2.52243 -1.77853 -7.50814e-18)
(-1.20021 -4.61289 -5.76081e-18)
(-0.923606 -4.62446 1.41294e-18)
(-1.0204 -4.11997 4.61022e-18)
(-1.31373 -3.61268 4.01404e-18)
(-1.59451 -3.16243 1.93283e-20)
(-1.82735 -2.74425 -1.04313e-17)
(-2.00961 -2.39233 1.24315e-17)
(-2.1441 -2.11252 2.32241e-17)
(-2.23965 -1.90505 -1.60028e-17)
(-2.30446 -1.76318 -1.0478e-17)
(-2.34692 -1.67553 9.28413e-18)
(-2.37232 -1.63133 0)
(-0.189961 -3.64109 3.82672e-18)
(-0.3292 -3.54526 1.60517e-18)
(-0.540002 -3.21144 1.68221e-18)
(-0.867759 -2.90564 6.7817e-18)
(-1.19375 -2.64752 0)
(-1.48379 -2.38718 5.68023e-18)
(-1.72291 -2.14163 -1.1097e-17)
(-1.90993 -1.92557 -5.09833e-18)
(-2.04914 -1.7501 -5.11854e-18)
(-2.14545 -1.62235 9.62331e-18)
(-2.2077 -1.54125 4.99314e-18)
(-2.24262 -1.5022 1.42303e-17)
(-5.36902 -3.71173 6.18678e-19)
(-5.60931 -3.57096 1.45637e-19)
(-5.73923 -3.33031 1.51271e-18)
(-5.79648 -3.07801 -4.21369e-18)
(-5.75568 -2.76928 1.70598e-18)
(-5.61868 -2.46728 0)
(-5.36574 -2.15044 -1.04852e-19)
(-5.00258 -1.86045 3.09218e-20)
(-4.51817 -1.58475 0)
(-3.855 -1.30504 4.86502e-20)
(-3.1407 -0.938501 0)
(-2.787 -0.186585 -2.62728e-19)
(-4.31541 -4.01021 -1.43577e-18)
(-4.47509 -3.90933 1.61398e-18)
(-4.62286 -3.7532 7.57612e-19)
(-4.746 -3.55423 -2.44134e-19)
(-4.81037 -3.33602 0)
(-4.81097 -3.11102 0)
(-4.73641 -2.89306 9.31035e-19)
(-4.58466 -2.70263 -1.02562e-18)
(-4.35427 -2.56179 0)
(-3.91827 -2.45895 5.00268e-19)
(-3.47187 -2.36683 -7.65679e-20)
(-3.38885 -2.11441 -8.88028e-19)
(-4.24513 -3.33108 7.50937e-19)
(-4.33616 -3.24762 -1.14401e-18)
(-4.4097 -3.15123 0)
(-4.45374 -3.04864 -1.28841e-18)
(-4.46033 -2.94584 -1.4935e-18)
(-4.42452 -2.854 3.43108e-18)
(-4.34127 -2.78383 -3.28471e-18)
(-4.21072 -2.75061 0)
(-4.03953 -2.77204 0)
(-3.76647 -2.85191 0)
(-3.41758 -2.92206 -3.80949e-19)
(-3.46066 -2.91516 8.39785e-20)
(-3.88492 -3.09797 -6.0503e-19)
(-3.94649 -3.04273 -3.06708e-19)
(-3.99774 -2.98121 0)
(-4.03047 -2.91984 -2.7255e-19)
(-4.03954 -2.86595 0)
(-4.02269 -2.82829 0)
(-3.97703 -2.81722 9.02852e-19)
(-3.90233 -2.84374 -1.19271e-18)
(-3.80678 -2.92317 1.35124e-18)
(-3.67463 -3.07369 0)
(-3.39677 -3.29076 -2.81001e-19)
(-3.66079 -3.6007 -2.79861e-19)
(-3.61963 -2.8167 3.93081e-18)
(-3.66399 -2.77752 -1.01244e-18)
(-3.70164 -2.74151 1.70497e-18)
(-3.7274 -2.71477 6.89559e-19)
(-3.73922 -2.70163 -2.51496e-18)
(-3.7388 -2.70602 0)
(-3.7232 -2.74061 -1.09027e-18)
(-3.69343 -2.81355 0)
(-3.65361 -2.9384 0)
(-3.61313 -3.13178 7.77374e-19)
(-3.39961 -3.42418 6.40909e-20)
(-3.79773 -3.87905 3.43518e-19)
(-3.3648 -2.57124 -1.93018e-18)
(-3.39801 -2.54662 -1.51609e-19)
(-3.42787 -2.531 0)
(-3.45227 -2.5274 0)
(-3.4739 -2.53943 -3.19359e-18)
(-3.49138 -2.57268 2.01944e-18)
(-3.50518 -2.63473 2.10105e-18)
(-3.51784 -2.73379 1.11721e-18)
(-3.53361 -2.88337 -2.7312e-18)
(-3.55801 -3.10871 -6.40464e-19)
(-3.4541 -3.45077 0)
(-3.9639 -4.04477 3.29732e-19)
(-3.12795 -2.34144 -5.04313e-18)
(-3.15433 -2.32741 2.0425e-18)
(-3.18045 -2.32531 2.2542e-18)
(-3.20746 -2.33687 1.30374e-19)
(-3.23712 -2.36481 -2.92068e-19)
(-3.27062 -2.41393 -2.36123e-18)
(-3.3102 -2.49036 -3.48384e-18)
(-3.36028 -2.60048 -1.28832e-18)
(-3.42612 -2.75485 1.23306e-18)
(-3.51924 -2.97439 0)
(-3.55253 -3.31986 1.26251e-18)
(-4.05053 -3.97902 -2.90873e-19)
(-2.90958 -2.12845 5.42443e-18)
(-2.93103 -2.12221 -2.9643e-18)
(-2.95433 -2.12923 -2.7085e-18)
(-2.98221 -2.14981 -4.88961e-18)
(-3.01736 -2.18599 4.83809e-18)
(-3.06246 -2.24188 -1.44164e-19)
(-3.12138 -2.32225 7.51717e-18)
(-3.20094 -2.43144 1.21544e-18)
(-3.30969 -2.5777 1.5225e-18)
(-3.46481 -2.77991 0)
(-3.59218 -3.1021 -8.87899e-19)
(-4.1476 -3.7964 -3.887e-19)
(-2.7115 -1.93469 0)
(-2.72822 -1.93368 2.90366e-18)
(-2.74755 -1.94619 2.80199e-18)
(-2.77329 -1.97105 -2.86727e-18)
(-2.80887 -2.00947 -1.17997e-19)
(-2.85783 -2.06473 -2.92805e-18)
(-2.92533 -2.14014 -2.66335e-18)
(-3.02161 -2.2372 0)
(-3.15994 -2.36072 -1.42868e-18)
(-3.36436 -2.52434 -9.31319e-19)
(-3.59915 -2.78817 3.10325e-18)
(-4.13489 -3.42398 -6.44476e-19)
(-2.53579 -1.76383 0)
(-2.54695 -1.76594 0)
(-2.5602 -1.78137 0)
(-2.57958 -1.80727 -1.01089e-17)
(-2.60855 -1.84389 6.44553e-18)
(-2.65084 -1.89363 6.24235e-18)
(-2.71198 -1.95767 0)
(-2.80682 -2.03306 -3.31954e-18)
(-2.95612 -2.12075 0)
(-3.19617 -2.22569 -2.03091e-18)
(-3.51424 -2.39039 -5.86757e-19)
(-4.06462 -2.87893 -8.64911e-19)
(-2.38331 -1.61813 0)
(-2.38801 -1.62235 0)
(-2.39266 -1.63916 8.03295e-18)
(-2.40064 -1.66438 1.11007e-17)
(-2.4141 -1.69729 3.58447e-19)
(-2.43625 -1.73941 3.75698e-18)
(-2.47195 -1.78903 -1.82488e-18)
(-2.54217 -1.83587 5.20264e-18)
(-2.67712 -1.87628 3.70934e-18)
(-2.92326 -1.90228 1.89846e-18)
(-3.30175 -1.90058 -1.598e-18)
(-3.83257 -1.938 -1.40559e-18)
(-2.25332 -1.49653 0)
(-2.25194 -1.50335 0)
(-2.24459 -1.52182 -8.43752e-18)
(-2.23425 -1.54613 4.51357e-18)
(-2.22053 -1.57522 -3.89331e-18)
(-2.20548 -1.61009 -3.9592e-18)
(-2.19423 -1.64681 4.1346e-18)
(-2.21638 -1.66532 0)
(-2.30774 -1.65723 -3.77847e-18)
(-2.50257 -1.5946 -2.04204e-18)
(-2.90166 -1.375 2.01664e-18)
(-3.26011 -0.483873 -2.99523e-18)
(-2.21815 -0.0386194 6.7315e-20)
(-1.88625 -0.000898022 0)
(-1.63622 0.0891241 0)
(-1.57098 0.21395 1.54009e-18)
(-1.77829 0.434871 -1.14728e-18)
(-1.77332 1.37662 0)
(-2.02349 2.91501 0)
(-2.89895 3.4649 2.16742e-19)
(-3.28229 3.81219 4.33155e-19)
(-3.67534 4.26924 -5.60068e-19)
(-3.75881 4.68051 -2.95596e-18)
(-3.82469 5.0698 1.19626e-18)
(-2.80838 -0.651387 -3.98466e-19)
(-2.3188 -0.346725 0)
(-2.44956 0.179557 0)
(-2.58976 1.1287 -4.34946e-19)
(-3.08835 2.32394 6.28695e-19)
(-3.4576 3.20761 -1.08693e-18)
(-3.58342 3.58112 1.06802e-18)
(-3.77062 3.64066 6.8653e-19)
(-3.8735 3.72019 -9.66177e-20)
(-3.98867 3.87212 7.12535e-19)
(-4.04926 3.99795 0)
(-4.06068 4.15669 -9.79204e-20)
(-3.16355 -0.510752 2.33538e-19)
(-2.8098 0.233267 0)
(-3.06936 1.23816 0)
(-3.34689 2.33147 -4.24032e-19)
(-3.55286 3.16906 3.12718e-19)
(-3.54885 3.59016 -1.09418e-18)
(-3.50074 3.77813 0)
(-3.50266 3.85817 -2.37977e-18)
(-3.48839 3.92155 2.64244e-18)
(-3.47357 3.99016 -6.60703e-19)
(-3.44229 4.06005 -1.26828e-18)
(-3.39667 4.14886 1.68338e-18)
(-3.41005 -0.218959 -8.41639e-19)
(-3.29373 0.681256 1.18019e-18)
(-3.49797 1.73418 0)
(-3.58246 2.70496 5.06505e-19)
(-3.52698 3.28215 -5.47707e-19)
(-3.46143 3.56253 8.81779e-19)
(-3.3707 3.67964 0)
(-3.3001 3.69646 -1.62101e-18)
(-3.25131 3.70542 -3.474e-18)
(-3.21509 3.72863 2.11985e-18)
(-3.18136 3.76619 1.85713e-18)
(-3.14399 3.82091 -3.69711e-18)
(-3.55284 0.12488 1.29901e-18)
(-3.54708 1.00905 -8.24543e-19)
(-3.62829 1.98158 1.54506e-18)
(-3.54946 2.79775 0)
(-3.43823 3.2466 -3.55505e-18)
(-3.28855 3.42612 3.94812e-18)
(-3.1649 3.46749 2.14272e-18)
(-3.07283 3.47207 1.4286e-18)
(-3.00111 3.48181 0)
(-2.94458 3.50144 0)
(-2.89861 3.53175 0)
(-2.8571 3.5727 -4.70963e-19)
(-3.67118 0.38134 3.03991e-18)
(-3.7156 1.20706 0)
(-3.69082 2.05933 -1.71076e-18)
(-3.5093 2.75294 2.53358e-18)
(-3.31135 3.10603 2.35741e-18)
(-3.11677 3.21723 -4.66313e-18)
(-2.96631 3.24493 2.38318e-18)
(-2.85037 3.25104 -7.61505e-18)
(-2.76175 3.26007 1.24468e-20)
(-2.69442 3.27614 -2.13836e-19)
(-2.64357 3.29983 2.12948e-19)
(-2.60372 3.33027 6.86999e-18)
(-3.80688 0.555715 -5.20099e-18)
(-3.87805 1.29266 2.84693e-18)
(-3.75035 2.02491 -3.79596e-18)
(-3.49046 2.61781 -2.64831e-18)
(-3.21339 2.88536 -5.93315e-18)
(-2.97314 2.98013 -3.35501e-18)
(-2.78628 3.01143 -4.91224e-18)
(-2.64455 3.02507 7.89111e-18)
(-2.53882 3.03843 0)
(-2.46143 3.05538 6.21437e-18)
(-2.40636 3.0765 -8.43947e-18)
(-2.36792 3.10113 2.79918e-18)
(-4.00367 0.658181 -3.09849e-18)
(-4.09302 1.29088 -4.52474e-18)
(-3.87173 1.9036 6.19245e-18)
(-3.53447 2.37923 0)
(-3.17242 2.62159 -4.04868e-18)
(-2.86994 2.72522 6.23763e-18)
(-2.63667 2.7728 -3.15913e-19)
(-2.46311 2.80083 -4.15094e-20)
(-2.33677 2.8234 -4.02415e-18)
(-2.24762 2.84491 -7.07948e-18)
(-2.18767 2.8665 3.0445e-18)
(-2.15015 2.88813 -2.96666e-18)
(-4.20214 0.723616 2.4414e-18)
(-4.38324 1.25951 0)
(-4.07739 1.71319 0)
(-3.65483 2.092 0)
(-3.21074 2.32302 4.01033e-18)
(-2.82998 2.45436 0)
(-2.5351 2.53166 -2.66076e-19)
(-2.31786 2.58219 1.04135e-17)
(-2.16319 2.61979 1.40904e-19)
(-2.05809 2.64957 3.87427e-18)
(-1.99108 2.67394 -3.66597e-18)
(-1.95303 2.69436 1.05231e-17)
(-4.60709 0.83275 4.04393e-20)
(-4.71694 1.13051 8.06829e-18)
(-4.27452 1.43035 -2.66598e-18)
(-3.77408 1.74269 0)
(-3.27549 1.9847 0)
(-2.83285 2.15857 0)
(-2.47902 2.28139 0)
(-2.21404 2.36665 5.69195e-18)
(-2.0256 2.42726 -2.05947e-17)
(-1.89906 2.47059 -9.50671e-18)
(-1.8211 2.50139 8.70761e-18)
(-1.78026 2.52255 4.45383e-18)
(-4.61345 1.20027 -5.75823e-18)
(-4.62548 0.92344 -4.39677e-18)
(-4.121 1.02036 -2.71411e-18)
(-3.61368 1.31391 0)
(-3.16327 1.5948 0)
(-2.74501 1.8276 7.0641e-18)
(-2.39314 2.00976 -1.26381e-17)
(-2.11349 2.14413 2.34706e-17)
(-1.90622 2.23963 1.61755e-17)
(-1.76456 2.30445 9.96019e-18)
(-1.6771 2.34697 -9.31084e-18)
(-1.63299 2.37253 5.4057e-19)
(-3.64119 0.190284 -1.28752e-18)
(-3.54526 0.329249 0)
(-3.21168 0.539901 3.24621e-18)
(-2.90599 0.867784 -1.01224e-17)
(-2.64785 1.19387 9.38327e-18)