/*--------------------------------*- C++ -*----------------------------------*\
| =========                 |                                                 |
| \\      /  F ield         | OpenFOAM: The Open Source CFD Toolbox           |
|  \\    /   O peration     | Version:  v1912                                 |
|   \\  /    A nd           | Website:  www.openfoam.com                      |
|    \\/     M anipulation  |                                                 |
\*---------------------------------------------------------------------------*/
FoamFile
{
    version     2.0;
    format      ascii;
    class       volScalarField;
    location    "200";
    object      epsilon;
}
// * * * * * * * * * * * * * * * * * * * * * * * * * * * * * * * * * * * * * //

dimensions      [0 2 -3 0 0 0 0];


internalField   nonuniform List<scalar> 
3072
(
6.94918
5.59417
6.83545
6.21985
6.63294
12.836
63.4639
109.734
132.359
146.637
155.06
158.644
19.3448
15.9047
16.3758
26.983
51.7994
60.0328
79.1285
93.7232
98.1806
100.086
100.363
99.8671
30.4172
30.7041
44.1029
47.5107
53.3331
62.3462
73.612
78.3489
80.8541
82.1633
82.3054
81.0694
37.9793
37.2041
45.1473
47.4068
53.1012
61.1471
67.2171
70.4799
72.4339
73.3211
73.3431
72.3012
40.559
39.0929
44.9548
47.0548
52.2174
58.4133
63.0671
66.0821
67.9095
68.7654
68.8304
67.9484
37.7582
37.1179
43.0472
45.9485
50.4444
55.8684
59.9524
62.7093
64.5311
65.5055
65.7337
65.1246
32.805
31.9955
38.6934
43.4662
49.1211
54.2428
57.9194
60.4133
62.0733
63.1249
63.5028
63.1439
29.392
26.7864
35.1107
43.4539
50.1638
55.1995
58.523
60.6209
61.8344
62.4852
62.6245
62.2306
28.5752
25.6057
37.3581
48.6407
57.1023
61.892
64.1669
64.9813
65.0541
64.7477
64.1168
63.1372
30.7847
30.9617
53.6238
71.0782
80.5035
83.3755
82.5279
79.6093
76.3321
73.1559
70.2204
67.4666
38.1592
58.8234
102.105
125.591
130.746
127.771
119.204
109.245
99.5368
90.7765
83.2459
76.8606
182.711
165.995
180.924
185.904
181.461
169.119
154.321
138.844
124.05
110.554
98.6904
88.4873
157.252
155.355
151.032
144.143
134.459
123.071
109.379
93.865
75.916
56.6725
39.6795
52.7613
96.8913
93.5523
89.386
85.6817
82.5974
81.5631
83.0585
88.5025
96.0409
104.023
117.003
151.168
78.5039
75.0968
71.3231
68.059
66.0149
65.6134
67.6012
73.6682
85.4797
105.16
137.753
211.674
70.2296
67.4567
64.3673
61.5225
59.6491
59.1696
60.9577
66.6829
78.5188
101.216
146
254.764
66.1907
63.7379
60.9161
58.203
56.2411
55.5933
57.0355
62.2088
73.536
96.6956
148.395
281.374
63.7003
61.6047
59.1184
56.6531
54.7506
54.0147
55.1985
59.8383
70.5108
93.2534
148.968
304.73
62.0343
60.2934
58.1753
56.021
54.2694
53.4886
54.4353
58.4937
68.2954
89.7019
145.52
322.704
61.1954
59.6469
57.7862
55.876
54.2604
53.492
54.2408
57.7055
66.714
87.1866
142.015
345.473
61.7563
60.0459
58.1411
56.24
54.6046
53.7252
54.2586
57.1148
65.2386
84.818
139.3
371.042
64.8055
62.2189
59.723
57.3973
55.4124
54.1321
54.3298
56.5046
63.6095
82.1029
136.048
397.398
71.45
66.8532
62.9062
59.5392
56.7789
54.7913
54.3872
55.8618
61.7414
79.0243
133.249
431.19
79.8667
72.7498
66.898
62.1368
58.3644
55.5778
54.3611
55.2241
59.5595
74.6024
128.036
493.62
6.91164
5.55962
6.79658
6.17964
6.56558
12.5116
62.7238
109.236
132.015
146.327
154.83
158.45
19.2536
15.8211
16.1869
26.4182
51.4422
59.9053
78.7325
93.513
98.0169
99.9314
100.227
99.748
30.2058
30.4446
43.9147
47.3294
53.099
62.1013
73.3851
78.1742
80.6929
82.0098
82.1666
80.9538
37.7243
36.9888
44.9532
47.2845
52.8547
60.9245
67.0344
70.3167
72.301
73.2574
73.2725
72.1888
40.2382
38.8937
44.7824
46.7447
52.0121
58.2275
62.8987
65.9233
67.7599
68.6273
68.6987
67.8261
37.5598
36.9455
42.93
45.8504
50.2602
55.7019
59.8009
62.5581
64.3804
65.3579
65.5921
64.9928
32.6615
31.8684
38.574
43.3373
48.977
54.1072
57.7873
60.2766
61.9292
62.9797
63.3592
63.007
29.3329
26.6984
35.0117
43.3408
50.0502
55.0885
58.4093
60.497
61.7044
62.3502
62.487
62.0951
28.5617
25.5656
37.293
48.586
57.054
61.8366
64.0969
64.8815
64.9375
64.6265
63.9911
63.0102
30.7948
30.9522
53.6182
71.1037
80.5445
83.4007
82.5338
79.5718
76.264
73.0709
70.1223
67.3607
38.169
58.8183
102.11
125.64
130.83
127.855
119.265
109.275
99.5365
90.7472
83.1929
76.7907
182.374
165.815
180.789
185.867
181.458
169.168
154.378
138.892
124.08
110.561
98.6752
88.4529
157.094
155.239
150.923
144.072
134.393
123.015
109.322
93.8108
75.8684
56.6358
39.6446
52.7257
96.7935
93.47
89.3205
85.6284
82.5525
81.5185
83.015
88.4593
95.9987
103.98
116.943
151.076
78.4148
75.0304
71.2765
68.0268
65.9929
65.5954
67.5881
73.6559
85.4651
105.134
137.718
211.591
70.1367
67.3856
64.3164
61.4889
59.6289
59.1564
60.9523
66.6822
78.5202
101.215
145.978
254.698
66.0861
63.6535
60.8506
58.1543
56.2072
55.5689
57.0228
62.2045
73.538
96.7006
148.389
281.322
63.5839
61.5052
59.0362
56.5865
54.6992
53.9751
55.172
59.8239
70.5072
93.2587
148.969
304.681
61.9084
60.1817
58.0785
55.939
54.2018
53.4351
54.3942
58.4668
68.2821
89.7003
145.53
322.662
61.0666
59.529
57.6808
55.7839
54.1825
53.4288
54.1879
57.6663
66.6891
87.1765
142.01
345.433
61.6327
59.9298
58.0343
56.1439
54.5204
53.6546
54.1971
57.0663
65.2052
84.7982
139.292
371.011
64.6974
62.1136
59.6232
57.3054
55.3295
54.061
54.2671
56.4532
63.5718
82.0808
136.039
397.403
71.3701
66.7694
62.823
59.4596
56.7049
54.7254
54.3322
55.8142
61.7064
79.004
133.246
431.264
79.8183
72.6927
66.8367
62.0749
58.3051
55.524
54.3184
55.1878
59.5348
74.5943
128.051
493.836
6.91731
5.56454
6.8008
6.18582
6.58606
12.6639
63.1589
109.664
132.431
146.77
155.265
158.883
19.2808
15.8468
16.25
26.6338
51.6324
60.0585
79.042
93.7848
98.284
100.201
100.488
99.9957
30.283
30.5548
43.995
47.3783
53.289
62.3156
73.624
78.4047
80.9231
82.2378
82.3853
81.1583
37.8336
37.0854
45.0987
47.4282
53.0503
61.1268
67.2395
70.5239
72.4848
73.3769
73.4067
72.374
40.3873
39.005
44.9132
47.0389
52.1767
58.4063
63.0854
66.1144
67.949
68.8101
68.8811
68.0075
37.6671
37.0483
43.0057
45.9144
50.4127
55.8647
59.9687
62.735
64.562
65.541
65.7737
65.1707
32.7444
31.9487
38.664
43.4445
49.1114
54.2508
57.9393
60.4378
62.0995
63.153
63.5333
63.1779
29.3906
26.7627
35.0975
43.4518
50.1748
55.2225
58.5521
60.6505
61.8625
62.5107
62.6487
62.2552
28.6044
25.616
37.3715
48.681
57.1604
61.9529
64.2229
65.0272
65.0905
64.7758
64.1392
63.1565
30.8361
31.0005
53.69
71.182
80.626
83.4901
82.6296
79.6845
76.3862
73.1925
70.2444
67.4824
38.2233
58.887
102.185
125.702
130.882
127.904
119.318
109.337
99.605
90.8226
83.2739
76.8756
182.667
165.967
180.897
185.919
181.495
169.185
154.394
138.912
124.106
110.595
98.7169
88.5016
157.507
155.625
151.302
144.408
134.697
123.278
109.547
93.9919
76.0077
56.7332
39.7078
52.7947
97.0221
93.6808
89.5122
85.8033
82.7124
81.6714
83.1568
88.6049
96.1499
104.138
117.118
151.3
78.6031
75.2026
71.4328
68.1693
66.1236
65.7208
67.7068
73.7755
85.5939
105.285
137.908
211.896
70.3126
67.5478
64.4643
61.6235
59.7518
59.2729
61.062
66.7906
78.6346
101.35
146.17
255.054
66.2586
63.8137
60.998
58.289
56.3298
55.6841
57.1307
62.3094
73.6467
96.8261
148.569
281.701
63.7532
61.6643
59.1835
56.722
54.8228
54.0903
55.2801
59.9286
70.6136
93.3781
149.141
305.076
62.0732
60.3373
58.2238
56.073
54.325
53.549
54.502
58.5709
68.387
89.8171
145.687
323.065
61.2221
59.6769
57.8198
55.9134
54.3023
53.5398
54.2935
57.7681
66.7917
87.2887
142.169
345.845
61.7748
60.0652
58.1618
56.2631
54.6312
53.7576
54.2956
57.1617
65.3009
84.9054
139.44
371.423
64.8168
62.2284
59.7324
57.4082
55.4259
54.151
54.3531
56.537
63.6566
82.1748
136.175
397.8
71.4569
66.8558
62.9075
59.5411
56.7826
54.7988
54.4047
55.883
61.7752
79.0817
133.362
431.621
79.8722
72.7501
66.8959
62.1345
58.3635
55.58
54.3706
55.2382
59.5845
74.6489
128.135
494.155
6.91542
5.56342
6.80187
6.18467
6.57079
12.5123
62.7019
109.16
131.903
146.183
154.664
158.27
19.2658
15.8322
16.2008
26.4555
51.4636
59.8824
78.6925
93.4415
97.9321
99.8409
100.134
99.6551
30.2223
30.4624
43.9379
47.3459
53.0935
62.0749
73.3424
78.119
80.6304
81.9424
82.0949
80.88
37.7345
37.0059
44.9706
47.2958
52.845
60.8974
66.9942
70.2697
72.2219
73.1116
73.1447
72.1191
40.2393
38.9081
44.7971
46.7508
51.9938
58.1992
62.8635
65.8823
67.7081
68.5659
68.6365
67.7678
37.5533
36.9566
42.9432
45.8574
50.2437
55.6773
59.7709
62.5239
64.3416
65.3151
65.5469
64.9456
32.6536
31.8754
38.5807
43.3335
48.9637
54.0882
57.764
60.2499
61.8993
62.9475
63.3248
62.9705
29.3242
26.7003
35.0152
43.3374
50.0402
55.0734
58.3902
60.4751
61.6821
62.3264
62.4615
62.068
28.5565
25.5687
37.3003
48.5922
57.0552
61.8318
64.0871
64.868
64.9215
64.6086
63.9716
62.9893
30.7966
30.9654
53.6491
71.1405
80.5754
83.4209
82.5456
79.5749
76.2607
73.0631
70.1114
67.3474
38.1907
58.8733
102.201
125.734
130.908
127.918
119.309
109.303
99.5526
90.7545
83.1937
76.7869
182.634
165.98
180.927
185.975
181.553
169.241
154.434
138.933
124.108
110.579
98.6856
88.4576
156.911
155.053
150.746
143.909
134.249
122.894
109.226
93.7422
75.8241
56.6116
39.6424
52.7295
96.7047
93.387
89.2436
85.5581
82.4898
81.4619
82.9712
88.4157
95.954
103.934
116.902
151.044
78.3402
74.9559
71.203
67.9555
65.9249
65.5296
67.5259
73.5952
85.4044
105.074
137.645
211.5
70.0682
67.316
64.2462
61.4187
59.5596
59.0877
60.8846
66.6139
78.4496
101.139
145.891
254.559
66.0263
63.5919
60.7878
58.091
56.1435
55.5049
56.9569
62.1365
73.4659
96.6204
148.291
281.147
63.5343
61.4535
58.9831
56.5325
54.6442
53.9186
55.1125
59.7598
70.4365
93.1774
148.866
304.481
61.8695
60.1406
58.0357
55.8948
54.156
53.3866
54.3425
58.4091
68.216
89.6208
145.423
322.445
61.0371
59.4974
57.6472
55.7483
54.1444
53.3871
54.1435
57.6162
66.6297
87.1022
141.906
345.194
61.61
59.9053
58.0083
56.1162
54.4906
53.6215
54.1612
57.0245
65.1536
84.7309
139.192
370.752
64.6821
62.0962
59.604
57.2845
55.3068
54.0352
54.2383
56.419
63.5281
82.0211
135.944
397.12
71.3628
66.7592
62.8104
59.445
56.6887
54.7067
54.3088
55.7872
61.6707
78.9529
133.158
430.957
79.8187
72.6894
66.8306
62.0666
58.2949
55.5116
54.3011
55.1676
59.5074
74.5532
127.978
493.491
179.227
179.762
177.754
173.917
169.158
162.625
153.155
141.462
129.432
117.495
105.817
94.8587
101.663
105.728
109.251
112.661
115.712
118.1
117.935
116.005
112.595
107.438
99.7115
91.2791
66.7129
68.6017
70.6716
73.0569
75.8101
78.8451
81.5334
83.5908
84.2162
83.7115
81.7961
78.9422
47.6618
48.7444
50.0213
51.5411
53.4223
55.7496
58.3659
60.9619
63.2027
64.4787
64.44
63.3894
84.992
76.5515
69.518
63.8024
59.3016
56.0282
54.2444
54.6132
57.1536
66.2857
93.3655
184.123
82.9654
75.3085
68.671
63.162
58.8223
55.7241
53.8222
53.7395
54.8007
58.7589
70.0001
96.292
74.6241
69.2123
64.1911
59.8521
56.4448
53.8771
52.0641
50.9007
50.6875
51.5368
55.4208
64.0533
61.6965
59.4567
56.6658
53.6065
50.7006
47.8786
45.3355
43.158
42.024
41.7519
43.1691
46.2581
179.184
179.676
177.651
173.822
169.085
162.588
153.165
141.48
129.446
117.502
105.814
94.8431
101.627
105.666
109.161
112.557
115.609
118.009
117.87
115.958
112.556
107.41
99.6955
91.2581
66.685
68.5565
70.6063
72.9733
75.7151
78.7461
81.4364
83.5014
84.1424
83.647
81.7393
78.8949
47.6248
48.6982
49.9631
51.4706
53.3405
55.6594
58.2719
60.8696
63.1155
64.4065
64.3766
63.3359
84.9648
76.5152
69.4758
63.7581
59.2581
55.9888
54.217
54.5926
57.145
66.2946
93.3987
184.2
82.9398
75.2777
68.6376
63.1293
58.7929
55.7017
53.8112
53.7382
54.8118
58.7858
70.0495
96.3721
74.5888
69.1788
64.1616
59.8286
56.4298
53.8736
52.0731
50.9229
50.7199
51.5816
55.4847
64.1374
61.6511
59.4229
56.6475
53.6013
50.7086
47.9004
45.3701
43.2046
42.0817
41.8178
43.248
46.3493
179.266
179.764
177.739
173.904
169.157
162.644
153.197
141.506
129.472
117.528
105.84
94.873
101.723
105.779
109.289
112.691
115.742
118.129
117.969
116.04
112.629
107.469
99.735
91.2959
66.7838
68.6704
70.7334
73.1111
75.8589
78.8888
81.5732
83.6272
84.2482
83.7396
81.8209
78.9621
47.7254
48.8073
50.0801
51.5944
53.4698
55.7913
58.4019
60.9926
63.2284
64.5003
64.4594
63.4075
84.9988
76.5533
69.517
63.8012
59.3015
56.0308
54.2536
54.6263
57.1752
66.3234
93.4337
184.269
82.9758
75.3144
68.6747
63.1656
58.8274
55.7324
53.8358
53.7572
54.8247
58.7934
70.0533
96.3774
74.6375
69.2236
64.2016
59.8636
56.4587
53.8948
52.086
50.927
50.7176
51.5729
55.4687
64.1168
61.7149
59.4755
56.6849
53.6286
50.7259
47.9074
45.3673
43.193
42.0622
41.7937
43.218
46.3152
179.314
179.792
177.756
173.92
169.174
162.665
153.224
141.527
129.483
117.53
105.834
94.8571
101.722
105.766
109.264
112.661
115.71
118.101
117.95
116.027
112.618
107.46
99.7281
91.2846
66.7586
68.6381
70.6941
73.0663
75.8116
78.8413
81.5293
83.5884
84.2172
83.7135
81.7983
78.9439
47.6883
48.7671
50.0368
51.5487
53.4225
55.7436
58.3561
60.9505
63.191
64.4701
64.4334
63.3853
84.974
76.5204
69.4776
63.7572
59.2546
55.9825
54.2065
54.5802
57.1276
66.2675
93.356
184.103
82.9598
75.2933
68.6491
63.1373
58.7978
55.7031
53.8089
53.7341
54.804
58.7708
70.0224
96.3189
74.6237
69.2082
64.1849
59.8466
56.4433
53.8826
52.078
50.9228
50.7146
51.5688
55.4602
64.0958
61.6953
59.46
56.675
53.6224
50.7231
47.9068
45.3675
43.1917
42.0584
41.7867
43.2073
46.302
37.436
38.7157
40.2779
42.1213
44.3038
46.7844
49.1507
50.8861
51.9409
52.0818
51.4837
50.7034
30.6382
32.2831
34.154
36.2189
38.4496
40.6628
42.2719
43.2371
43.638
43.6709
43.5116
43.2508
26.3587
28.2683
30.3081
32.4092
34.4795
36.1463
37.1974
37.8263
38.2606
38.7112
39.1068
38.8976
23.5795
25.6237
27.7062
29.7163
31.474
32.6297
33.3665
34.0132
34.905
36.4636
37.955
38.435
49.63
46.0839
42.2101
38.7234
35.4313
32.9221
31.4771
31.0989
31.7861
33.0633
34.9221
36.4227
41.8616
35.0826
29.7696
26.1898
23.6727
22.3896
22.2498
23.0166
24.4523
26.1684
27.9365
29.344
36.8223
26.5725
20.9366
18.0607
16.6208
16.3452
16.9194
18.1517
19.7751
21.518
23.2144
24.7353
35.8735
20.2665
15.0162
13.0556
12.5113
12.8002
13.7365
15.1091
16.7227
18.4095
20.0858
21.7424
37.3931
38.6627
40.2171
42.0539
44.2313
46.711
49.0819
50.8228
51.887
52.0355
51.4529
50.6875
30.5987
32.2349
34.1012
36.1622
38.3904
40.611
42.2264
43.2039
43.6417
43.6507
43.5163
43.2717
26.3264
28.2301
30.2668
32.3656
34.4355
36.1123
37.1724
37.8103
38.2601
38.7217
39.1363
38.9465
23.5572
25.5978
27.6782
29.6848
31.446
32.6107
33.3575
34.0134
34.9203
36.4947
38.0111
38.505
49.6301
46.0964
42.2366
38.7626
35.4813
32.9817
31.5429
31.1695
31.8609
33.1415
35.0075
36.5137
41.8982
35.1232
29.818
26.2453
23.7333
22.4535
22.3151
23.0833
24.521
26.2397
28.0118
29.4224
36.8877
26.6268
20.9902
18.1156
16.6763
16.4007
16.9745
18.2069
19.8314
21.5761
23.2753
24.7981
35.9705
20.3246
15.0657
13.1028
12.5572
12.8453
13.7808
15.1529
16.7668
18.4548
20.1324
21.7907
37.4884
38.7617
40.3189
42.1573
44.3352
46.8121
49.1725
50.9028
51.9595
52.0987
51.5041
50.7277
30.6791
32.3167
34.1835
36.2446
38.4723
40.6823
42.2868
43.2579
43.6881
43.6896
43.5403
43.2831
26.3906
28.2948
30.3317
32.4298
34.4977
36.1634
37.2138
37.846
38.2875
38.7397
39.1418
38.9364
23.6062
25.6471
27.7277
29.7354
31.4918
32.6478
33.3858
34.0353
34.9324
36.496
37.9976
38.484
49.6589
46.1152
42.2436
38.7593
35.4684
32.9604
31.516
31.1391
31.8282
33.108
34.9716
36.4762
41.8972
35.1191
29.806
26.2255
23.707
22.4228
22.2827
23.0506
24.4884
26.2073
27.9787
29.3884
36.8653
26.609
20.9691
18.0901
16.6474
16.3703
16.9442
18.1777
19.8033
21.5487
23.2476
24.77
35.9317
20.3005
15.0423
13.0779
12.5308
12.8181
13.7543
15.1282
16.7437
18.4327
20.1107
21.7683
37.4497
38.7219
40.2787
42.1175
44.2958
46.7743
49.1401
50.8736
51.9319
52.0755
51.4848
50.7124
30.6447
32.2822
34.1495
36.2111
38.439
40.6539
42.2613
43.2319
43.6566
43.6708
43.5238
43.2693
26.362
28.2661
30.303
32.4016
34.4698
36.1391
37.1921
37.8248
38.2666
38.7221
39.1236
38.9167
23.5835
25.624
27.7043
29.711
31.4677
32.626
33.3664
34.0174
34.9162
36.4805
37.9709
38.4493
49.6482
46.1084
42.2386
38.7539
35.4613
32.9509
31.5032
31.123
31.8092
33.0856
34.9478
36.4553
41.8859
35.1081
29.7934
26.2112
23.691
22.4055
22.2622
23.0268
24.4613
26.1766
27.9455
29.3609
36.8415
26.5899
20.9505
18.0716
16.6286
16.3506
16.9217
18.1514
19.7727
21.5139
23.2094
24.7325
35.8819
20.2739
15.0213
13.0589
12.5124
12.7992
13.7324
15.1016
16.7118
18.3952
20.0672
21.7233
21.6422
23.7482
25.8273
27.7405
29.18
30.0189
30.5694
31.1431
32.1572
33.8272
36.3443
41.0114
20.1556
22.2992
24.3839
26.2471
27.4664
28.0304
28.177
28.0727
27.6896
25.9107
16.6805
5.06188
18.8883
21.0654
23.183
25.0025
25.9972
26.3015
25.8112
24.4303
21.606
15.5941
5.64888
2.90276
17.6972
19.8992
22.0638
23.8216
24.6706
24.7459
23.5049
20.7801
16.0436
8.83332
3.57749
2.87022
16.4978
18.6968
20.8809
22.5827
23.3622
23.2214
21.3998
17.7582
12.319
6.23901
3.26207
2.99076
15.2516
17.405
19.5635
21.2287
21.9978
21.7155
19.5786
15.5726
10.2995
5.57488
3.32003
3.02845
13.9656
16.0246
18.1055
19.736
20.5247
20.206
18.0345
14.1075
9.37321
5.5572
3.62534
3.03201
12.6914
14.6142
16.567
18.1521
18.9782
18.7115
16.7315
13.1544
9.03982
5.82139
4.00423
2.85154
11.5407
13.3065
15.0975
16.6233
17.5047
17.3308
15.7023
12.5888
9.04682
6.217
4.38974
2.44076
10.7504
12.3869
14.0246
15.493
16.4755
16.4212
15.1457
12.512
9.41547
6.76523
4.74175
1.86951
11.1215
12.7934
14.4149
15.9599
17.1824
17.2716
16.0742
13.7636
10.8653
7.91783
5.11321
1.17432
19.5741
22.5852
25.3121
28.3009
31.2883
31.7678
29.7574
25.8842
20.0965
12.7998
6.38773
1.67202
49.1047
15.4409
11.0937
9.99862
9.96997
10.5979
11.6807
13.0616
14.6131
16.2439
17.9256
19.6862
24.9651
10.7415
8.42093
7.9964
8.30432
9.10001
10.2201
11.5569
13.0362
14.6184
16.3073
18.1354
16.4205
7.85617
6.64029
6.60356
7.11517
7.97842
9.08007
10.3507
11.7551
13.2882
14.9716
16.8342
11.7379
6.02201
5.38198
5.57855
6.19152
7.06481
8.11899
9.31241
10.6378
12.113
13.7703
15.6352
8.69784
4.75023
4.43097
4.7688
5.42349
6.27382
7.26504
8.3751
9.61563
11.0196
12.6259
14.4588
6.49979
3.78186
3.6716
4.0928
4.75539
5.56367
6.4841
7.50784
8.65832
9.97719
11.5076
13.2735
4.7901
3.00197
3.03957
3.5102
4.16098
4.91608
5.76319
6.70159
7.76032
8.9845
10.4186
12.0862
3.49803
2.37193
2.50097
3.00309
3.63081
4.32652
5.1028
5.96256
6.93483
8.06327
9.39087
10.9399
2.47112
1.83746
2.03833
2.56941
3.16891
3.80276
4.51723
5.31461
6.21728
7.26418
8.49291
9.92369
1.62798
1.37256
1.66068
2.23955
2.81179
3.3826
4.06339
4.84214
5.7186
6.71926
7.88188
9.22884
0.956909
0.998836
1.46831
2.12689
2.68226
3.21069
3.91577
4.7656
5.73108
6.83044
8.085
9.51715
0.698576
1.20443
2.46681
3.34614
3.92113
4.56511
5.71005
7.31615
9.18311
11.3205
13.7812
16.5767
21.63
23.7344
25.8116
27.7222
29.1666
30.0138
30.5752
31.1566
32.1856
33.8696
36.4075
41.094
20.1533
22.2968
24.3808
26.243
27.4679
28.0362
28.1893
28.0935
27.7201
25.9473
16.7042
5.06766
18.8938
21.0724
23.1895
25.0108
26.0083
26.3145
25.8281
24.4513
21.6284
15.6104
5.65326
2.90433
17.7088
19.9134
22.079
23.8383
24.6883
24.7638
23.5232
20.7978
16.0569
8.83875
3.57958
2.8717
16.5126
18.7151
20.9009
22.6042
23.3838
23.2417
21.4179
17.7725
12.3275
6.24256
3.26408
2.9924
15.2674
17.4248
19.5856
21.2518
22.0208
21.7363
19.5957
15.5847
10.3063
5.57869
3.32237
3.03014
13.9801
16.0433
18.1265
19.7583
20.547
20.2259
18.0504
14.1185
9.37977
5.56142
3.62802
3.03368
12.7034
14.6301
16.5852
18.1719
18.9983
18.7295
16.7459
13.1645
9.04648
5.82608
4.00717
2.8531
11.5493
13.319
15.1119
16.6396
17.5217
17.3461
15.7153
12.5982
9.05357
6.222
4.3928
2.44198
10.756
12.3959
14.0352
15.5059
16.4895
16.4343
15.1571
12.5208
9.4223
6.77037
4.74472
1.87035
11.1237
12.7998
14.4231
15.9712
17.1951
17.2839
16.0852
13.7728
10.8729
7.92318
5.11582
1.17473
19.5689
22.592
25.3236
28.3211
31.3115
31.79
29.7769
25.9006
20.1082
12.8062
6.39027
1.67246
49.2807
15.4947
11.135
10.0369
10.0072
10.6342
11.7161
13.0961
14.6472
16.278
17.9605
19.7217
25.0648
10.7828
8.45361
8.02721
8.33455
9.12965
10.2487
11.5843
13.0624
14.6438
16.3323
18.1606
16.4881
7.88733
6.66612
6.62858
7.14023
8.00318
9.10382
10.3728
11.7754
13.3068
14.9891
16.8507
11.7865
6.0459
5.4027
5.59927
6.21281
7.08606
8.13922
9.33076
10.6538
12.1266
13.7818
15.6452
8.73366
4.76895
4.44783
4.78633
5.44199
6.29251
7.28274
8.39073
9.62853
11.0296
12.6333
14.4637
6.52635
3.7967
3.6855
4.10787
4.7718
5.58048
6.49996
7.52156
8.66908
9.98477
11.512
13.2751
4.80954
3.0138
3.0511
3.5233
4.17573
4.93145
5.7777
6.71396
7.76964
8.99048
10.4212
12.0856
3.51237
2.38144
2.51054
3.01455
3.64425
4.3408
5.11633
5.97401
6.94324
8.06836
9.39243
10.9381
2.48123
1.84493
2.04621
2.57953
3.18134
3.81629
4.53009
5.32553
6.2252
7.26885
8.49404
9.9213
1.63462
1.37817
1.66721
2.24877
2.82385
3.39603
4.07623
4.85312
5.72651
6.72392
7.88295
9.22615
0.960777
1.00285
1.4742
2.13621
2.69502
3.2251
3.92959
4.77777
5.74021
6.83595
8.08643
9.51413
0.701273
1.2088
2.47797
3.36331
3.94328
4.58956
5.73304
7.33773
9.20111
11.3322
13.7852
16.5728
21.6661
23.7709
25.8491
27.7607
29.1998
30.0394
30.5914
31.1664
32.1834
33.8564
36.3839
41.0722
20.1784
22.3222
24.4069
26.2694
27.4887
28.0526
28.1991
28.0937
27.7088
25.9269
16.6924
5.0691
18.91
21.0886
23.2067
25.0261
26.0204
26.324
25.8316
24.4472
21.6182
15.6018
5.65428
2.90676
17.7175
19.9215
22.087
23.8446
24.6932
24.7672
23.523
20.7936
16.0522
8.83945
3.58162
2.87422
16.5158
18.717
20.9019
22.6034
23.3826
23.2398
21.4152
17.7692
12.3267
6.24505
3.26583
2.99483
15.2665
17.4219
19.5811
21.2458
22.0146
21.7303
19.591
15.582
10.3067
5.58047
3.3235
3.03251
13.9767
16.0376
18.1186
19.7488
20.5371
20.2171
18.044
14.1155
9.37963
5.56242
3.62871
3.03597
12.6987
14.6229
16.5756
18.1605
18.9862
18.7191
16.7381
13.1609
9.04498
5.82608
4.00751
2.85499
11.5438
13.3114
15.1017
16.6281
17.5083
17.336
15.7058
12.5945
9.05072
6.22145
4.39287
2.44364
10.7502
12.388
14.0253
15.4947
16.4766
16.4237
15.1478
12.516
9.41922
6.76923
4.74496
1.87156
11.1173
12.7912
14.413
15.96
17.1825
17.2731
16.0756
13.7671
10.8692
7.92216
5.1165
1.17548
19.5595
22.5776
25.3077
28.3025
31.2928
31.7709
29.7624
25.8896
20.1035
12.8072
6.39183
1.67309
49.219
15.4711
11.1137
10.015
9.98448
10.6106
11.6934
13.0753
14.6284
16.2607
17.9435
19.7047
25.0269
10.7636
8.43538
8.0081
8.31424
9.10889
10.229
11.5666
13.047
14.6302
16.3198
18.1479
16.4602
7.87202
6.65085
6.61196
7.12216
7.98471
9.08636
10.3574
11.7625
13.2962
14.9796
16.8418
11.7642
6.03345
5.38996
5.58471
6.19661
7.06933
8.12341
9.31706
10.6427
12.118
13.775
15.6391
8.71631
4.75876
4.43705
4.77347
5.42731
6.27712
7.26816
8.37821
9.61873
11.0224
12.628
14.4598
6.51255
3.78832
3.67627
4.09643
4.75836
5.56614
6.4863
7.50987
8.66011
9.97844
11.5079
13.2724
4.79884
3.00697
3.04318
3.5131
4.16337
4.91798
5.76473
6.70284
7.76118
8.98464
10.4176
12.0837
3.50426
2.37591
2.50376
3.00544
3.63283
4.32804
5.10388
5.96326
6.93504
8.06263
9.38898
10.9364
2.47538
1.84044
2.04043
2.57134
3.1707
3.80403
4.51794
5.31488
6.21699
7.263
8.49037
9.91943
1.63054
1.37457
1.66218
2.24122
2.81359
3.3838
4.06377
4.84197
5.71788
6.7176
7.87874
9.22387
0.958235
0.999894
1.46937
2.1286
2.68435
3.21203
3.91583
4.76498
5.72979
6.82811
8.08088
9.51084
0.699619
1.20508
2.46956
3.35062
3.92581
4.56822
5.7094
7.31426
9.18034
11.3157
13.7728
16.5635
21.6484
23.7523
25.8292
27.7395
29.1787
30.02
30.5745
31.1512
32.1699
33.8394
36.3494
41.0112
20.1653
22.308
24.3912
26.2518
27.471
28.0355
28.1837
28.0806
27.6964
25.9103
16.6713
5.05919
18.9006
21.0781
23.1944
25.0121
26.0055
26.309
25.8176
24.4346
21.6049
15.5861
5.64462
2.90004
17.7115
19.9146
22.0786
23.8339
24.6811
24.754
23.5094
20.7801
16.0377
8.82579
3.57438
2.86732
16.5121
18.7128
20.8963
22.5956
23.373
23.2281
21.4017
17.755
12.3121
6.2341
3.25932
2.98766
15.2646
17.4198
19.578
21.2403
22.0071
21.7198
19.5779
15.5676
10.2931
5.57118
3.31757
3.02527
13.9756
16.0365
18.1168
19.7447
20.5312
20.2074
18.0315
14.1015
9.36734
5.55381
3.62285
3.02878
12.6979
14.6221
16.5743
18.1571
18.9812
18.7099
16.7264
13.1475
9.0341
5.81796
4.00146
2.84835
11.5429
13.3102
15.1002
16.6243
17.5041
17.326
15.6956
12.5809
9.04085
6.21319
4.38648
2.43793
10.7488
12.3862
14.0227
15.4903
16.4714
16.4138
15.1369
12.503
9.40885
6.76069
4.73776
1.86722
11.1149
12.7883
14.4087
15.9543
17.1753
17.2615
16.063
13.7531
10.8573
7.91159
5.10801
1.17278
19.5508
22.5681
25.2951
28.2916
31.2744
31.7472
29.7347
25.8629
20.078
12.7862
6.38016
1.66977
49.1029
15.4409
11.0933
9.99734
9.96756
10.5934
11.6729
13.0496
14.5963
16.2215
17.8964
19.6534
24.9528
10.738
8.41798
7.99328
8.30037
9.09403
10.2106
11.5426
13.0158
14.5906
16.27
18.0921
16.4096
7.8519
6.63675
6.60006
7.11098
7.97231
9.07045
10.3357
11.7331
13.2574
14.9294
16.7833
11.7296
6.01819
5.37874
5.57544
6.18789
7.05946
8.1102
9.29814
10.6159
12.0814
13.7258
15.5802
8.69187
4.74714
4.42836
4.76644
5.42083
6.26973
7.25776
8.36243
9.59519
10.9891
12.5821
14.403
6.49559
3.77944
3.66966
4.09126
4.75384
5.56108
6.47872
7.4974
8.64032
9.94942
11.4665
13.2201
4.78728
3.00011
3.03822
3.50943
4.1605
4.91501
5.75985
6.6937
7.74538
8.96041
10.382
12.0377
3.496
2.37046
2.50008
3.00292
3.63122
4.32684
5.10147
5.95733
6.92321
8.04343
9.35975
10.8978
2.46969
1.83638
2.03775
2.56964
3.16993
3.8042
4.5177
5.31199
6.20895
7.24865
8.46754
9.88875
1.62708
1.37182
1.66031
2.23992
2.81306
3.38472
4.06558
4.84212
5.71328
6.70747
7.86191
9.20061
0.956416
0.998406
1.46802
2.12716
2.68341
3.213
3.91929
4.76792
5.72865
6.82157
8.06914
9.49934
0.698287
1.20408
2.46608
3.3454
3.92103
4.56621
5.71571
7.32238
9.18362
11.31
13.7634
16.5682
)
;

boundaryField
{
    rotor
    {
        lowReCorrection 0;
        type            epsilonWallFunction;
        value           nonuniform List<scalar> 
192
(
6.94918
5.59417
6.83545
6.21985
6.63294
12.836
63.4639
109.734
132.359
146.637
155.06
158.644
157.252
155.355
151.032
144.143
134.459
123.071
109.379
93.865
75.916
56.6725
39.6795
52.7613
6.91164
5.55962
6.79658
6.17964
6.56558
12.5116
62.7238
109.236
132.015
146.327
154.83
158.45
157.094
155.239
150.923
144.072
134.393
123.015
109.322
93.8108
75.8684
56.6358
39.6446
52.7257
6.91731
5.56454
6.8008
6.18582
6.58606
12.6639
63.1589
109.664
132.431
146.77
155.265
158.883
157.507
155.625
151.302
144.408
134.697
123.278
109.547
93.9919
76.0077
56.7332
39.7078
52.7947
6.91542
5.56342
6.80187
6.18467
6.57079
12.5123
62.7019
109.16
131.903
146.183
154.664
158.27
156.911
155.053
150.746
143.909
134.249
122.894
109.226
93.7422
75.8241
56.6116
39.6424
52.7295
6.94918
19.3448
30.4172
37.9793
40.559
37.7582
32.805
29.392
28.5752
30.7847
38.1592
182.711
52.7295
151.044
211.5
254.559
281.147
304.481
322.445
345.194
370.752
397.12
430.957
493.491
6.91164
19.2536
30.2058
37.7243
40.2382
37.5598
32.6615
29.3329
28.5617
30.7948
38.169
182.374
52.7613
151.168
211.674
254.764
281.374
304.73
322.704
345.473
371.042
397.398
431.19
493.62
6.91731
19.2808
30.283
37.8336
40.3873
37.6671
32.7444
29.3906
28.6044
30.8361
38.2233
182.667
52.7257
151.076
211.591
254.698
281.322
304.681
322.662
345.433
371.011
397.403
431.264
493.836
6.91542
19.2658
30.2223
37.7345
40.2393
37.5533
32.6536
29.3242
28.5565
30.7966
38.1907
182.634
52.7947
151.3
211.896
255.054
281.701
305.076
323.065
345.845
371.423
397.8
431.621
494.155
)
;
    }
    stator
    {
        lowReCorrection 0;
        type            epsilonWallFunction;
        value           nonuniform List<scalar> 
192
(
19.5741
22.5852
25.3121
28.3009
31.2883
31.7678
29.7574
25.8842
20.0965
12.7998
6.38773
1.67202
0.698576
1.20443
2.46681
3.34614
3.92113
4.56511
5.71005
7.31615
9.18311
11.3205
13.7812
16.5767
19.5689
22.592
25.3236
28.3211
31.3115
31.79
29.7769
25.9006
20.1082
12.8062
6.39027
1.67246
0.701273
1.2088
2.47797
3.36331
3.94328
4.58956
5.73304
7.33773
9.20111
11.3322
13.7852
16.5728
19.5595
22.5776
25.3077
28.3025
31.2928
31.7709
29.7624
25.8896
20.1035
12.8072
6.39183
1.67309
0.699619
1.20508
2.46956
3.35062
3.92581
4.56822
5.7094
7.31426
9.18034
11.3157
13.7728
16.5635
19.5508
22.5681
25.2951
28.2916
31.2744
31.7472
29.7347
25.8629
20.078
12.7862
6.38016
1.66977
0.698287
1.20408
2.46608
3.3454
3.92103
4.56621
5.71571
7.32238
9.18362
11.31
13.7634
16.5682
49.1047
24.9651
16.4205
11.7379
8.69784
6.49979
4.7901
3.49803
2.47112
1.62798
0.956909
0.698576
41.0114
5.06188
2.90276
2.87022
2.99076
3.02845
3.03201
2.85154
2.44076
1.86951
1.17432
1.67202
49.2807
25.0648
16.4881
11.7865
8.73366
6.52635
4.80954
3.51237
2.48123
1.63462
0.960777
0.701273
41.094
5.06766
2.90433
2.8717
2.9924
3.03014
3.03368
2.8531
2.44198
1.87035
1.17473
1.67246
49.219
25.0269
16.4602
11.7642
8.71631
6.51255
4.79884
3.50426
2.47538
1.63054
0.958235
0.699619
41.0722
5.0691
2.90676
2.87422
2.99483
3.03251
3.03597
2.85499
2.44364
1.87156
1.17548
1.67309
49.1029
24.9528
16.4096
11.7296
8.69187
6.49559
4.78728
3.496
2.46969
1.62708
0.956416
0.698287
41.0112
5.05919
2.90004
2.86732
2.98766
3.02527
3.02878
2.84835
2.43793
1.86722
1.17278
1.66977
)
;
    }
    front
    {
        type            empty;
    }
    back
    {
        type            empty;
    }
}


// ************************************************************************* //
