/*--------------------------------*- C++ -*----------------------------------*\
| =========                 |                                                 |
| \\      /  F ield         | OpenFOAM: The Open Source CFD Toolbox           |
|  \\    /   O peration     | Version:  v1912                                 |
|   \\  /    A nd           | Website:  www.openfoam.com                      |
|    \\/     M anipulation  |                                                 |
\*---------------------------------------------------------------------------*/
FoamFile
{
    version     2.0;
    format      ascii;
    class       volScalarField;
    location    "200";
    object      k;
}
// * * * * * * * * * * * * * * * * * * * * * * * * * * * * * * * * * * * * * //

dimensions      [0 2 -2 0 0 0 0];


internalField   nonuniform List<scalar> 
3072
(
0.0522055
0.0675904
0.0772249
0.0724854
0.0755203
0.11646
0.33974
0.491124
0.557058
0.596634
0.619499
0.629123
0.111181
0.173914
0.18766
0.188489
0.30126
0.358685
0.49555
0.649044
0.787107
0.917888
1.03538
1.12656
0.160737
0.328605
0.38612
0.377448
0.439101
0.569997
0.752705
0.928793
1.08647
1.21918
1.32263
1.38933
0.198272
0.402664
0.454799
0.473459
0.584417
0.755541
0.938196
1.10402
1.24811
1.36532
1.45217
1.50526
0.219089
0.462669
0.528852
0.571376
0.70332
0.87755
1.05106
1.20388
1.33384
1.43866
1.51662
1.56511
0.220129
0.479492
0.571967
0.646503
0.781479
0.947846
1.10746
1.24712
1.36638
1.4629
1.53525
1.58242
0.210357
0.467763
0.579062
0.684473
0.825951
0.982943
1.12928
1.25763
1.36801
1.45743
1.5254
1.57119
0.204418
0.452139
0.593843
0.730645
0.881889
1.02819
1.15803
1.27029
1.36639
1.44306
1.50237
1.54437
0.209
0.464918
0.662626
0.850445
1.01456
1.14265
1.24306
1.3248
1.3938
1.45101
1.49403
1.52381
0.228136
0.545324
0.878882
1.13756
1.30452
1.3966
1.4464
1.4743
1.49362
1.50997
1.52303
1.53107
0.272798
0.747075
1.28196
1.58929
1.72426
1.76355
1.75802
1.7241
1.68347
1.64279
1.60666
1.57505
0.801293
1.22343
1.74664
1.99948
2.07962
2.07549
2.03151
1.9593
1.87748
1.79447
1.71626
1.64559
0.625536
0.620577
0.609
0.590428
0.56367
0.531372
0.491152
0.443446
0.384857
0.316708
0.249729
0.200978
1.18499
1.20685
1.19997
1.15798
1.10641
1.05131
0.993185
0.928691
0.847211
0.694101
0.510532
0.438013
1.4134
1.41204
1.38251
1.33547
1.28175
1.22823
1.1773
1.1258
1.06347
0.959364
0.726104
0.586619
1.52351
1.52087
1.49564
1.45538
1.40802
1.36107
1.31928
1.28255
1.24306
1.17458
0.98339
0.70557
1.58331
1.58131
1.55948
1.52447
1.48348
1.4443
1.41326
1.3921
1.37449
1.33617
1.19095
0.797282
1.60362
1.60468
1.58784
1.55936
1.52671
1.49799
1.48077
1.47651
1.48157
1.47517
1.38776
0.885388
1.59507
1.60009
1.58965
1.56834
1.54321
1.52331
1.51717
1.53009
1.56082
1.58465
1.55153
0.965047
1.56867
1.57673
1.57144
1.55684
1.53876
1.5271
1.5296
1.55388
1.61023
1.66978
1.67664
1.05629
1.54091
1.54643
1.54205
1.53051
1.51627
1.51025
1.51898
1.55434
1.63044
1.73224
1.7729
1.15517
1.53076
1.52488
1.51311
1.49751
1.48256
1.47755
1.4877
1.52836
1.62262
1.76514
1.87173
1.25795
1.54663
1.51968
1.49293
1.46748
1.44586
1.43635
1.44424
1.48301
1.58295
1.77157
1.98544
1.37862
1.58272
1.52869
1.48232
1.44291
1.41134
1.39409
1.39842
1.43018
1.52084
1.73138
2.08683
1.56273
0.0520443
0.0673344
0.0769349
0.0721687
0.0750038
0.11452
0.337119
0.48965
0.556102
0.595798
0.618889
0.628614
0.110839
0.173552
0.186871
0.186253
0.298787
0.357341
0.492981
0.646888
0.784714
0.915629
1.03332
1.12475
0.159998
0.327152
0.385299
0.376623
0.436354
0.566967
0.749164
0.925487
1.0832
1.21613
1.31988
1.38715
0.197377
0.4011
0.453159
0.47145
0.580912
0.751894
0.93443
1.10041
1.24464
1.36208
1.44923
1.5028
0.217939
0.460801
0.526851
0.56855
0.699731
0.873843
1.04735
1.2003
1.33037
1.43542
1.51364
1.56257
0.21933
0.477816
0.569725
0.643415
0.778077
0.944359
1.10402
1.2436
1.36273
1.45961
1.53222
1.57972
0.209714
0.466341
0.57704
0.681867
0.822949
0.979856
1.12616
1.25442
1.36462
1.45425
1.52238
1.56841
0.204132
0.451311
0.592256
0.728657
0.879629
1.02576
1.15546
1.26755
1.3635
1.44016
1.49948
1.5416
0.208932
0.4645
0.661865
0.84954
1.01351
1.14131
1.24139
1.32282
1.39149
1.44848
1.49145
1.52123
0.228188
0.54549
0.879125
1.13791
1.30483
1.39657
1.4459
1.47331
1.49223
1.50806
1.52087
1.52881
0.272854
0.747251
1.28196
1.58943
1.72464
1.76376
1.75803
1.72372
1.68271
1.64161
1.60513
1.57329
0.800356
1.22233
1.74558
1.99869
2.07936
2.07528
2.03137
1.95903
1.87699
1.79371
1.7152
1.64429
0.625103
0.620221
0.608706
0.590222
0.563473
0.531196
0.490971
0.443268
0.384695
0.31657
0.24958
0.200894
1.18357
1.20584
1.19922
1.15743
1.10603
1.05102
0.992967
0.928511
0.847067
0.693975
0.51038
0.437829
1.41174
1.4108
1.38163
1.33487
1.28137
1.228
1.17716
1.1257
1.06338
0.959283
0.726028
0.586452
1.52158
1.51938
1.49455
1.45464
1.40755
1.36082
1.31917
1.28252
1.24306
1.17458
0.983349
0.70543
1.58113
1.57957
1.55814
1.52351
1.48285
1.44395
1.4131
1.39206
1.37451
1.33619
1.19092
0.797159
1.60132
1.60273
1.58624
1.55813
1.52582
1.49743
1.48047
1.47638
1.48155
1.47519
1.38771
0.885267
1.59259
1.59792
1.58781
1.56687
1.5421
1.52252
1.51665
1.52981
1.56074
1.58462
1.55148
0.964932
1.5661
1.57443
1.56942
1.55518
1.53744
1.52613
1.5289
1.55348
1.61008
1.66974
1.67655
1.05617
1.53843
1.54415
1.53996
1.52874
1.5148
1.50912
1.5181
1.55379
1.63022
1.73214
1.77279
1.15507
1.52852
1.52273
1.5111
1.49572
1.48102
1.47636
1.48673
1.52771
1.62235
1.76512
1.87166
1.25792
1.54474
1.51779
1.49111
1.4658
1.44436
1.43519
1.44327
1.48235
1.58272
1.77163
1.98551
1.37872
1.58125
1.52714
1.48077
1.44143
1.40998
1.39307
1.39757
1.42963
1.5207
1.73173
2.08722
1.56312
0.0520751
0.0673721
0.0769702
0.0722219
0.0751642
0.11544
0.33867
0.490924
0.557265
0.596997
0.620044
0.629751
0.110943
0.173606
0.187035
0.187018
0.299844
0.358351
0.494681
0.648694
0.786868
0.91796
1.03577
1.12724
0.16027
0.327728
0.385652
0.377172
0.437947
0.5689
0.751575
0.928115
1.08609
1.21917
1.32297
1.39015
0.19778
0.401908
0.454061
0.472605
0.582977
0.754258
0.937139
1.10336
1.24781
1.36538
1.45257
1.50607
0.218493
0.461881
0.528108
0.570246
0.701933
0.876346
1.05015
1.20333
1.33362
1.43878
1.51706
1.56593
0.219767
0.478877
0.571177
0.645386
0.780262
0.946842
1.10676
1.2467
1.36622
1.46301
1.53563
1.5831
0.210088
0.467288
0.578384
0.683592
0.825018
0.9822
1.12878
1.25734
1.36793
1.45753
1.52571
1.57173
0.204406
0.452029
0.593436
0.7302
0.881483
1.02789
1.15785
1.27021
1.36642
1.44318
1.50261
1.54477
0.20914
0.465117
0.662857
0.850824
1.01504
1.14311
1.24345
1.32512
1.39405
1.45123
1.49427
1.52411
0.228388
0.54603
0.879987
1.13896
1.30603
1.39797
1.44753
1.47515
1.49427
1.51036
1.52332
1.53134
0.273104
0.747913
1.28289
1.59049
1.72573
1.76498
1.75934
1.72518
1.68431
1.64337
1.60704
1.57531
0.801184
1.22345
1.74684
1.99994
2.08056
2.07649
2.03259
1.9603
1.87832
1.79511
1.7167
1.64588
0.626209
0.621297
0.609717
0.591139
0.56432
0.531951
0.491643
0.443839
0.385166
0.316925
0.249822
0.201107
1.18599
1.2081
1.20137
1.15943
1.10785
1.05268
0.994454
0.929817
0.848172
0.694819
0.51094
0.438264
1.4146
1.41351
1.38417
1.33723
1.28354
1.22998
1.17896
1.12731
1.06479
0.96045
0.726839
0.587011
1.52471
1.52237
1.49735
1.45726
1.40996
1.36303
1.32119
1.28434
1.24467
1.17595
0.984389
0.706085
1.58441
1.58271
1.56112
1.52631
1.48546
1.44635
1.4153
1.39406
1.3763
1.33774
1.19214
0.797874
1.60459
1.60591
1.58931
1.56104
1.52855
1.49996
1.4828
1.47853
1.48348
1.47687
1.38907
0.886032
1.59586
1.60112
1.5909
1.56982
1.54487
1.5251
1.51905
1.53203
1.56275
1.5864
1.55293
0.965737
1.56926
1.57753
1.57243
1.55806
1.54016
1.52868
1.53131
1.55571
1.61209
1.67154
1.67806
1.05701
1.54133
1.54702
1.54278
1.53145
1.51738
1.51155
1.52042
1.55595
1.6322
1.73396
1.7743
1.15593
1.53106
1.52527
1.51362
1.49815
1.48336
1.47857
1.48885
1.52971
1.6242
1.76677
1.87311
1.25876
1.54686
1.51992
1.49324
1.46789
1.4464
1.43711
1.44512
1.4841
1.58434
1.77313
1.98681
1.37949
1.58291
1.52886
1.48251
1.44317
1.41169
1.39466
1.3991
1.43105
1.522
1.73289
2.08826
1.56381
0.0520627
0.0673644
0.0769734
0.0722058
0.0750415
0.114518
0.337034
0.48942
0.555785
0.595407
0.618447
0.628138
0.110885
0.173636
0.186965
0.186356
0.298981
0.357198
0.492781
0.64649
0.784169
0.914945
1.03252
1.12385
0.160054
0.327267
0.385464
0.376743
0.436294
0.566681
0.748765
0.924922
1.08251
1.21532
1.31897
1.38609
0.197408
0.401179
0.453186
0.471385
0.580684
0.751515
0.933932
1.09978
1.24392
1.36126
1.44829
1.50171
0.217942
0.460794
0.526787
0.568355
0.699445
0.873435
1.04684
1.19969
1.32967
1.43462
1.51273
1.56151
0.219301
0.477767
0.569618
0.643177
0.777773
0.943968
1.10355
1.24306
1.36211
1.45891
1.53141
1.57876
0.209678
0.466279
0.576919
0.681622
0.822632
0.979485
1.12575
1.25395
1.3641
1.45364
1.52168
1.5676
0.20409
0.451236
0.592126
0.728436
0.879347
1.02543
1.1551
1.26715
1.36308
1.43968
1.49894
1.54098
0.208904
0.464452
0.661799
0.849438
1.01336
1.14111
1.24115
1.32254
1.39117
1.44811
1.49104
1.52078
0.228194
0.545589
0.87935
1.1382
1.30507
1.3967
1.44595
1.47327
1.49213
1.50785
1.5206
1.52847
0.272952
0.747716
1.28271
1.59027
1.72539
1.76435
1.75851
1.72404
1.6829
1.64168
1.60509
1.57315
0.801097
1.22341
1.74676
1.9999
2.08045
2.07629
2.03221
1.9597
1.8775
1.79406
1.71542
1.64439
0.624626
0.619748
0.608232
0.589781
0.563075
0.530852
0.490687
0.443056
0.384547
0.316487
0.249592
0.200869
1.18259
1.20481
1.19818
1.1564
1.10505
1.05012
0.992153
0.927814
0.846507
0.693595
0.510208
0.43776
1.41058
1.40956
1.38035
1.33358
1.28011
1.22681
1.17607
1.12473
1.06256
0.958645
0.725623
0.586293
1.52036
1.51808
1.49318
1.45324
1.40614
1.35944
1.31787
1.28132
1.24201
1.17372
0.982769
0.705182
1.57995
1.57829
1.55679
1.5221
1.4814
1.44248
1.41167
1.3907
1.37329
1.33517
1.19019
0.79684
1.60021
1.60152
1.58498
1.5568
1.52444
1.49599
1.47902
1.47496
1.48022
1.47405
1.38687
0.884895
1.59166
1.5969
1.5867
1.56567
1.54081
1.52116
1.51525
1.5284
1.55937
1.5834
1.55056
0.964514
1.56538
1.5736
1.56849
1.55414
1.5363
1.52488
1.52759
1.5521
1.60869
1.66846
1.67557
1.0557
1.53787
1.54348
1.5392
1.52786
1.51383
1.50803
1.51693
1.55251
1.62885
1.73084
1.77178
1.15455
1.52812
1.52223
1.51049
1.49502
1.48023
1.47543
1.48571
1.52656
1.62105
1.76379
1.87061
1.25734
1.54451
1.51748
1.4907
1.46529
1.44377
1.43443
1.44243
1.48135
1.5815
1.77031
1.98442
1.37809
1.58125
1.52702
1.48055
1.44112
1.40958
1.39248
1.3969
1.4288
1.51965
1.73042
2.08612
1.56241
1.95672
1.99031
2.03508
2.0886
2.11095
2.10014
2.0721
2.01775
1.94359
1.86052
1.77207
1.68517
1.83082
1.81814
1.824
1.84639
1.873
1.88947
1.88846
1.87266
1.84421
1.79693
1.72737
1.65327
1.62003
1.61042
1.60684
1.60819
1.61764
1.62929
1.63931
1.63998
1.63366
1.61736
1.59179
1.55329
1.41217
1.41049
1.40834
1.40733
1.41007
1.41717
1.42766
1.43738
1.43918
1.43565
1.42367
1.40418
1.60297
1.53061
1.46925
1.41857
1.37945
1.35685
1.35902
1.38308
1.4534
1.62958
2.02724
2.01041
1.5757
1.50347
1.43942
1.38714
1.34871
1.32774
1.32993
1.34825
1.39657
1.50626
1.78105
1.85935
1.49673
1.43926
1.38643
1.34472
1.31659
1.30119
1.30133
1.31157
1.34041
1.39113
1.53652
1.62571
1.37991
1.35017
1.31457
1.28638
1.26337
1.24435
1.23184
1.22787
1.2414
1.26501
1.33806
1.40073
1.95537
1.98878
2.03332
2.0869
2.10972
2.09908
2.07129
2.01711
1.94288
1.85974
1.77115
1.68409
1.82962
1.8166
1.82219
1.84446
1.8711
1.88724
1.88751
1.87143
1.84297
1.79586
1.72629
1.65215
1.61888
1.60899
1.60522
1.60635
1.61566
1.62729
1.63827
1.63787
1.63191
1.61583
1.59035
1.55197
1.41097
1.40908
1.40677
1.40561
1.40818
1.41521
1.42582
1.43547
1.4375
1.43412
1.42231
1.40296
1.60177
1.52934
1.46796
1.41734
1.3783
1.35607
1.35842
1.38278
1.45352
1.63021
2.02833
2.01162
1.57455
1.50233
1.43832
1.38617
1.34785
1.32734
1.32973
1.34839
1.39713
1.50733
1.78272
1.86122
1.49556
1.43822
1.38555
1.3441
1.31619
1.30131
1.3017
1.31232
1.3416
1.39268
1.53862
1.62807
1.37891
1.3495
1.31421
1.2864
1.26374
1.24518
1.23295
1.22933
1.24326
1.26712
1.34051
1.40338
1.95672
1.99028
2.03502
2.0887
2.11147
2.10078
2.07285
2.01858
1.94432
1.86111
1.77251
1.68547
1.83162
1.81879
1.82457
1.84692
1.87361
1.89013
1.88914
1.87334
1.84485
1.79747
1.7278
1.65359
1.62137
1.61159
1.60792
1.60912
1.61847
1.63003
1.63999
1.64058
1.6342
1.61783
1.5922
1.55362
1.41368
1.41184
1.40954
1.40838
1.41092
1.41787
1.42824
1.43787
1.43959
1.43602
1.42401
1.40451
1.60317
1.53076
1.46941
1.41878
1.37972
1.35733
1.35959
1.38383
1.45442
1.63094
2.02888
2.01205
1.57591
1.50365
1.43959
1.38737
1.349
1.32825
1.33053
1.34902
1.39756
1.50755
1.78274
1.8611
1.49695
1.43947
1.38668
1.34507
1.31702
1.30183
1.30207
1.31246
1.34148
1.3924
1.53815
1.62747
1.38026
1.35054
1.31502
1.28696
1.26406
1.24519
1.23277
1.22892
1.2426
1.26634
1.33962
1.40242
1.95685
1.99026
2.0348
2.0884
2.11111
2.10039
2.07243
2.01807
1.94371
1.86039
1.77165
1.68446
1.83137
1.81836
1.82397
1.84624
1.87287
1.88941
1.88844
1.87266
1.84417
1.79679
1.72706
1.65277
1.62068
1.61081
1.60706
1.60819
1.61751
1.62908
1.63908
1.63972
1.63338
1.61706
1.59146
1.5529
1.41269
1.41082
1.4085
1.40734
1.40989
1.41686
1.42728
1.43696
1.43877
1.43525
1.42328
1.40381
1.60201
1.52945
1.46795
1.41722
1.37808
1.35565
1.35791
1.38211
1.45264
1.62907
2.02716
2.0106
1.57501
1.50264
1.4385
1.38621
1.34778
1.32702
1.32933
1.34783
1.39636
1.50629
1.78144
1.86003
1.49623
1.43871
1.38585
1.34421
1.31615
1.30102
1.3013
1.31172
1.34078
1.39165
1.53725
1.62664
1.37958
1.3499
1.3144
1.28637
1.26351
1.2447
1.2323
1.22846
1.24213
1.26581
1.33894
1.40169
1.24582
1.24916
1.25304
1.25818
1.26596
1.27553
1.28458
1.2889
1.28455
1.27353
1.2614
1.25453
1.1199
1.13188
1.14249
1.15198
1.16069
1.16716
1.16938
1.1655
1.15551
1.14493
1.13961
1.14003
1.03078
1.05019
1.06505
1.0753
1.08144
1.08176
1.07515
1.06332
1.04904
1.03699
1.02629
1.00749
0.966347
0.991137
1.0077
1.0168
1.01901
1.01173
0.995963
0.97495
0.952797
0.928465
0.891471
0.822148
1.25265
1.21915
1.17221
1.13652
1.10505
1.08579
1.08293
1.09705
1.12779
1.1665
1.21396
1.24017
1.14056
1.07927
1.00244
0.954712
0.926328
0.920561
0.934945
0.965599
1.00633
1.04914
1.08618
1.10705
0.992996
0.931756
0.8462
0.803526
0.78945
0.798333
0.825651
0.864829
0.908842
0.950973
0.985366
1.00955
0.761675
0.773732
0.710615
0.686407
0.688106
0.709492
0.744707
0.787532
0.83211
0.873634
0.90916
0.938372
1.24446
1.24762
1.25141
1.25649
1.26423
1.27384
1.28299
1.28745
1.28339
1.27266
1.26088
1.25423
1.11858
1.13045
1.14104
1.15052
1.15925
1.16578
1.16813
1.16451
1.15487
1.1448
1.14021
1.14063
1.02964
1.04903
1.0639
1.07416
1.08032
1.0807
1.07427
1.06274
1.04885
1.03729
1.02712
1.00844
0.965479
0.990311
1.0069
1.016
1.01821
1.01099
0.995413
0.974708
0.952927
0.928996
0.892337
0.823181
1.25271
1.21959
1.17302
1.13771
1.10656
1.0876
1.08492
1.09921
1.13011
1.16894
1.21654
1.24281
1.1414
1.08043
1.0039
0.956461
0.928298
0.922693
0.937157
0.967866
1.00865
1.0515
1.08858
1.10945
0.994267
0.933275
0.847934
0.805442
0.791493
0.800447
0.827784
0.866957
0.91096
0.953086
0.987457
1.01158
0.763083
0.775319
0.712349
0.688254
0.690036
0.711456
0.74666
0.789444
0.833971
0.875444
0.910906
0.940052
1.24709
1.25019
1.2539
1.25889
1.26651
1.27598
1.28495
1.28923
1.28486
1.27391
1.26188
1.25504
1.12092
1.13266
1.14313
1.15249
1.1611
1.16749
1.16968
1.16581
1.15587
1.14547
1.14045
1.14073
1.03161
1.05085
1.06557
1.07575
1.08181
1.08208
1.07546
1.06367
1.04949
1.03759
1.02706
1.00824
0.967071
0.991743
1.00822
1.01726
1.01941
1.01208
0.996312
0.975352
0.953286
0.929044
0.892134
0.822897
1.25327
1.21988
1.17305
1.13746
1.10606
1.08686
1.08404
1.09822
1.12905
1.16787
1.21544
1.2417
1.14134
1.08019
1.00343
0.955735
0.927353
0.921586
0.93598
0.966673
1.00748
1.05036
1.08746
1.10834
0.993867
0.932714
0.847181
0.804483
0.79036
0.799213
0.826524
0.865728
0.909793
0.951983
0.9864
1.01056
0.762563
0.774636
0.711497
0.687225
0.688867
0.71021
0.745411
0.788252
0.832865
0.874423
0.909954
0.939136
1.24599
1.24911
1.25286
1.25789
1.26557
1.27509
1.28412
1.28845
1.28416
1.27324
1.26122
1.25444
1.11985
1.13164
1.14216
1.15158
1.16024
1.16669
1.16892
1.16512
1.15525
1.14487
1.13976
1.14018
1.03062
1.04991
1.06469
1.07491
1.08101
1.08132
1.07476
1.06304
1.04893
1.03708
1.02653
1.0077
0.966189
0.990908
1.00742
1.01649
1.01866
1.01137
0.995667
0.974785
0.952798
0.928613
0.891674
0.822308
1.25271
1.21936
1.17256
1.137
1.10563
1.08646
1.08363
1.09779
1.12856
1.16728
1.21481
1.24111
1.14082
1.07963
1.00286
0.955198
0.926865
0.921142
0.935552
0.966221
1.00696
1.04973
1.0868
1.10781
0.993257
0.93204
0.846514
0.803885
0.789857
0.798778
0.826117
0.865293
0.90928
0.951346
0.985678
1.01001
0.761824
0.773862
0.710772
0.686621
0.688385
0.709816
0.745047
0.78785
0.83237
0.873804
0.909212
0.938422
0.917186
0.946139
0.963696
0.971453
0.97024
0.955086
0.928075
0.893148
0.850181
0.783867
0.637575
0.381409
0.876424
0.909532
0.929042
0.936791
0.933038
0.909835
0.868963
0.812128
0.73327
0.60236
0.325531
0.0969834
0.839229
0.877016
0.900085
0.909388
0.904944
0.874388
0.817993
0.734844
0.616213
0.43605
0.175162
0.0687899
0.802096
0.844606
0.872846
0.885283
0.882176
0.846391
0.776338
0.669946
0.522801
0.333846
0.153837
0.0698135
0.762011
0.808912
0.843121
0.860018
0.859958
0.821961
0.74322
0.622236
0.464074
0.293204
0.163587
0.0732309
0.716643
0.76701
0.806743
0.828471
0.83237
0.796146
0.714945
0.589257
0.433345
0.282997
0.176995
0.0753272
0.664345
0.716633
0.76037
0.786776
0.795138
0.76375
0.686028
0.564026
0.417542
0.28287
0.18494
0.0768539
0.603913
0.656193
0.701714
0.731855
0.744711
0.719939
0.650553
0.538462
0.404908
0.282742
0.187575
0.0751349
0.53404
0.584131
0.628786
0.660861
0.677717
0.659812
0.602612
0.504896
0.386194
0.275096
0.182094
0.068955
0.45163
0.496972
0.537636
0.569174
0.588681
0.577131
0.533261
0.455052
0.352851
0.252935
0.162196
0.058731
0.345322
0.38143
0.414219
0.442151
0.461541
0.455417
0.423834
0.370986
0.291211
0.204322
0.120158
0.0437986
0.15342
0.168807
0.182213
0.196491
0.210092
0.212243
0.20321
0.185203
0.156508
0.115936
0.0729366
0.029828
0.433381
0.606012
0.596694
0.595518
0.611384
0.64137
0.680904
0.72505
0.76958
0.811488
0.849448
0.883756
0.282846
0.476018
0.505556
0.523677
0.549824
0.585103
0.626702
0.671098
0.71555
0.758436
0.799293
0.838335
0.218645
0.389011
0.435129
0.464761
0.497145
0.535242
0.577485
0.621551
0.665902
0.70992
0.753593
0.796879
0.178454
0.32659
0.378249
0.413828
0.449435
0.48857
0.530497
0.573804
0.617868
0.662782
0.708821
0.755722
0.149072
0.277359
0.329519
0.3676
0.404352
0.443222
0.484107
0.526242
0.569656
0.614944
0.662581
0.712207
0.125162
0.234982
0.285591
0.324133
0.360531
0.398112
0.437335
0.477857
0.520128
0.56506
0.613299
0.664475
0.104062
0.196264
0.244562
0.282289
0.317142
0.352538
0.38952
0.427964
0.468524
0.512263
0.559945
0.611265
0.0859865
0.159319
0.205375
0.241317
0.273537
0.305882
0.340049
0.375931
0.414187
0.455844
0.501742
0.551659
0.0694591
0.124023
0.167393
0.200462
0.228879
0.257247
0.287986
0.320791
0.356125
0.394795
0.437633
0.484519
0.0535322
0.0905653
0.129895
0.158285
0.181391
0.204654
0.231187
0.260206
0.291875
0.326552
0.364973
0.407046
0.0382227
0.0590563
0.0903257
0.110385
0.125544
0.141892
0.163041
0.186974
0.213507
0.242473
0.274413
0.309056
0.0166976
0.0238983
0.0385639
0.0472905
0.0525652
0.0581297
0.067405
0.0795648
0.0926267
0.106502
0.121417
0.137328
0.916616
0.945652
0.963235
0.97098
0.969745
0.954635
0.927801
0.893153
0.850482
0.78442
0.638204
0.381915
0.876151
0.909369
0.928903
0.936623
0.932822
0.909641
0.868908
0.812273
0.733586
0.602741
0.325751
0.0970555
0.839203
0.87712
0.90021
0.909484
0.904976
0.874412
0.818092
0.735045
0.616456
0.436232
0.175225
0.0688148
0.802263
0.84492
0.873185
0.88559
0.882416
0.846589
0.776545
0.670164
0.522977
0.333939
0.15389
0.0698376
0.762291
0.809352
0.843589
0.860468
0.860351
0.822283
0.7435
0.622467
0.464227
0.293297
0.163652
0.0732575
0.716974
0.767504
0.807275
0.828992
0.832846
0.796543
0.715268
0.589501
0.433505
0.283107
0.17707
0.0753549
0.664659
0.71711
0.76089
0.7873
0.795632
0.764169
0.686365
0.564275
0.417714
0.282994
0.185019
0.076882
0.604172
0.656605
0.702175
0.732332
0.745172
0.720339
0.650879
0.538704
0.405083
0.282872
0.187654
0.075162
0.534216
0.584454
0.629151
0.661258
0.678112
0.66016
0.602905
0.505117
0.38636
0.27522
0.182166
0.0689777
0.451728
0.497196
0.537901
0.569475
0.588992
0.577411
0.533505
0.455243
0.352992
0.25304
0.162253
0.0587485
0.345364
0.381564
0.414384
0.442354
0.461756
0.455616
0.424012
0.371135
0.291313
0.204395
0.12019
0.043809
0.153394
0.168841
0.182269
0.196584
0.210195
0.212341
0.203297
0.18528
0.156568
0.115974
0.0729557
0.0298332
0.434421
0.607462
0.598276
0.59718
0.613139
0.643151
0.68266
0.726744
0.771189
0.813006
0.850879
0.885092
0.283607
0.47726
0.506952
0.525172
0.551402
0.586709
0.628277
0.672592
0.716933
0.759699
0.800437
0.839372
0.219252
0.390055
0.436342
0.466091
0.498563
0.536691
0.5789
0.622873
0.667092
0.710963
0.7545
0.797655
0.178954
0.32747
0.379299
0.415008
0.450711
0.489881
0.531772
0.574977
0.618894
0.663646
0.709524
0.756288
0.149488
0.278104
0.330429
0.368648
0.405502
0.444412
0.48526
0.527288
0.570546
0.615659
0.663129
0.712602
0.125509
0.235611
0.286379
0.325062
0.361567
0.39919
0.438376
0.47879
0.520901
0.565657
0.61372
0.664743
0.104349
0.196789
0.245239
0.283107
0.318069
0.353509
0.390456
0.428794
0.469198
0.512762
0.560274
0.611436
0.0862257
0.159745
0.205948
0.242029
0.274358
0.306746
0.34088
0.376662
0.414771
0.456264
0.501996
0.551764
0.0696521
0.124356
0.167866
0.201069
0.229589
0.258001
0.288708
0.321423
0.356622
0.395143
0.437829
0.484574
0.0536804
0.0908097
0.13027
0.158779
0.181981
0.20528
0.231786
0.260727
0.292282
0.326829
0.365117
0.407063
0.0383277
0.0592158
0.0905988
0.110752
0.125986
0.142359
0.163486
0.187357
0.213806
0.242669
0.274501
0.309043
0.0167413
0.023957
0.0386813
0.0474534
0.0527637
0.0583368
0.0675841
0.0797181
0.0927448
0.106573
0.121438
0.137305
0.917856
0.946751
0.964256
0.971975
0.970702
0.9555
0.928477
0.893572
0.850625
0.784301
0.637976
0.381775
0.877078
0.910174
0.929659
0.937381
0.933571
0.910314
0.869406
0.812537
0.733623
0.602628
0.325695
0.0970742
0.839868
0.877682
0.900743
0.910028
0.905531
0.874917
0.818462
0.735234
0.616507
0.436263
0.175308
0.0688535
0.802706
0.845271
0.873509
0.885934
0.88278
0.846935
0.776814
0.670326
0.523084
0.334077
0.153994
0.0698789
0.762564
0.809535
0.843743
0.860632
0.860535
0.82248
0.743677
0.622603
0.464364
0.293446
0.163754
0.0732979
0.717114
0.767553
0.807283
0.829004
0.832874
0.796605
0.715355
0.589601
0.43363
0.283231
0.177157
0.0753951
0.664707
0.717068
0.7608
0.787199
0.795538
0.764122
0.686366
0.564332
0.417804
0.283091
0.185093
0.0769215
0.604156
0.656504
0.702019
0.732157
0.744994
0.720215
0.650809
0.538717
0.405133
0.282939
0.187721
0.0751961
0.534158
0.584324
0.628964
0.661057
0.677877
0.660005
0.602772
0.505106
0.386367
0.275269
0.182221
0.0690099
0.451647
0.497051
0.537714
0.569268
0.588758
0.577234
0.533359
0.455193
0.352989
0.25307
0.162303
0.0587745
0.345274
0.381427
0.414223
0.442174
0.461557
0.455454
0.42388
0.371065
0.291314
0.204418
0.120231
0.043828
0.153344
0.16877
0.182193
0.196499
0.210113
0.212258
0.203233
0.185229
0.156545
0.115981
0.0729684
0.029841
0.434051
0.606783
0.597429
0.596194
0.611999
0.641944
0.68146
0.725613
0.770161
0.812083
0.85003
0.884296
0.283313
0.476632
0.506147
0.524222
0.550317
0.585557
0.627136
0.67153
0.715987
0.758868
0.7997
0.838686
0.218998
0.389492
0.435603
0.465201
0.497542
0.535602
0.577822
0.621878
0.666222
0.710223
0.753857
0.797079
0.178723
0.326967
0.378632
0.414185
0.449755
0.488855
0.530757
0.574048
0.618096
0.662983
0.708973
0.755804
0.149285
0.277658
0.329829
0.367893
0.404613
0.443449
0.484308
0.526423
0.569815
0.615068
0.662651
0.712203
0.125327
0.235218
0.285842
0.324374
0.360745
0.398294
0.43749
0.477989
0.520234
0.565128
0.613309
0.664411
0.10419
0.196447
0.244764
0.282488
0.317319
0.352684
0.389639
0.428059
0.468592
0.512291
0.559916
0.611162
0.0860895
0.159451
0.205534
0.241481
0.273684
0.305998
0.340138
0.375996
0.414227
0.455846
0.501688
0.551535
0.0695397
0.124112
0.167515
0.200596
0.229001
0.257339
0.288052
0.320834
0.356144
0.394781
0.437566
0.484386
0.0535887
0.090617
0.129982
0.15839
0.18149
0.204724
0.231231
0.260229
0.291879
0.326527
0.364902
0.406917
0.0382583
0.05908
0.0903857
0.110464
0.125619
0.14194
0.163064
0.186981
0.213502
0.242445
0.274348
0.308942
0.0167143
0.0239067
0.0385921
0.0473327
0.0526077
0.0581569
0.0674001
0.079551
0.0926076
0.106471
0.121366
0.137254
0.917088
0.94601
0.963526
0.971252
0.969992
0.954829
0.927883
0.893072
0.850218
0.783953
0.637622
0.3814
0.876426
0.909534
0.929011
0.93672
0.932907
0.909683
0.868857
0.812088
0.733262
0.602322
0.325467
0.096948
0.83932
0.877134
0.90017
0.909437
0.90492
0.874324
0.817936
0.734797
0.616133
0.435926
0.175104
0.0687483
0.802258
0.844821
0.873027
0.885421
0.882233
0.84638
0.776296
0.669869
0.522668
0.333706
0.153773
0.069768
0.762198
0.80917
0.84334
0.860195
0.860056
0.821964
0.743164
0.622124
0.463919
0.293075
0.163507
0.0731818
0.716823
0.767266
0.80696
0.82864
0.83246
0.79613
0.714853
0.58911
0.43318
0.28287
0.176901
0.075276
0.664473
0.716841
0.760538
0.786892
0.795182
0.763685
0.685888
0.563842
0.417366
0.282739
0.184835
0.0768008
0.603969
0.656323
0.701807
0.731897
0.744688
0.719815
0.650364
0.538244
0.404717
0.282603
0.187464
0.0750801
0.534011
0.584176
0.628789
0.660827
0.677626
0.659628
0.602386
0.504651
0.38599
0.274948
0.181978
0.0689028
0.451534
0.496936
0.537567
0.56908
0.588538
0.576911
0.533018
0.454802
0.352638
0.252782
0.16208
0.0586841
0.345198
0.381343
0.414111
0.442035
0.46138
0.455201
0.423609
0.370768
0.291005
0.204177
0.120056
0.0437612
0.153298
0.168722
0.182132
0.196449
0.210031
0.212153
0.203108
0.185103
0.156414
0.115856
0.0728807
0.0298022
0.433384
0.606
0.59672
0.595601
0.611565
0.641603
0.681144
0.725246
0.76968
0.811449
0.849232
0.883431
0.282765
0.475936
0.505524
0.523712
0.549944
0.585273
0.62687
0.671199
0.715518
0.758218
0.798826
0.837684
0.218557
0.388912
0.435075
0.464771
0.49723
0.535374
0.577606
0.621586
0.665773
0.70956
0.752933
0.795962
0.178377
0.326501
0.378191
0.413827
0.449503
0.488681
0.530591
0.573799
0.617676
0.662331
0.708024
0.75462
0.149009
0.277285
0.329468
0.3676
0.404415
0.443326
0.484192
0.526221
0.569437
0.614449
0.661723
0.711005
0.125113
0.234922
0.285549
0.324137
0.360595
0.398216
0.437421
0.477838
0.519909
0.564566
0.612439
0.663264
0.104024
0.196218
0.24453
0.282299
0.317208
0.352645
0.389613
0.42796
0.468328
0.511804
0.559143
0.61012
0.0859563
0.159285
0.205351
0.241331
0.273603
0.305989
0.340149
0.375946
0.414026
0.455446
0.501032
0.550645
0.0694347
0.123999
0.167375
0.200477
0.228939
0.257348
0.288089
0.320826
0.356003
0.394465
0.437039
0.483679
0.0535144
0.0905492
0.129882
0.158294
0.181437
0.204736
0.23128
0.26025
0.291789
0.326286
0.3645
0.406416
0.0382109
0.059046
0.0903143
0.110385
0.125565
0.141938
0.16311
0.187013
0.213445
0.242252
0.274043
0.308718
0.0166934
0.0238944
0.0385578
0.0472853
0.0525659
0.05814
0.0674483
0.0796076
0.0926276
0.106434
0.121309
0.137278
)
;

boundaryField
{
    rotor
    {
        type            kqRWallFunction;
        value           nonuniform List<scalar> 
192
(
0.0522055
0.0675904
0.0772249
0.0724854
0.0755203
0.11646
0.33974
0.491124
0.557058
0.596634
0.619499
0.629123
0.625536
0.620577
0.609
0.590428
0.56367
0.531372
0.491152
0.443446
0.384857
0.316708
0.249729
0.200978
0.0520443
0.0673344
0.0769349
0.0721687
0.0750038
0.11452
0.337119
0.48965
0.556102
0.595798
0.618889
0.628614
0.625103
0.620221
0.608706
0.590222
0.563473
0.531196
0.490971
0.443268
0.384695
0.31657
0.24958
0.200894
0.0520751
0.0673721
0.0769702
0.0722219
0.0751642
0.11544
0.33867
0.490924
0.557265
0.596997
0.620044
0.629751
0.626209
0.621297
0.609717
0.591139
0.56432
0.531951
0.491643
0.443839
0.385166
0.316925
0.249822
0.201107
0.0520627
0.0673644
0.0769734
0.0722058
0.0750415
0.114518
0.337034
0.48942
0.555785
0.595407
0.618447
0.628138
0.624626
0.619748
0.608232
0.589781
0.563075
0.530852
0.490687
0.443056
0.384547
0.316487
0.249592
0.200869
0.0522055
0.111181
0.160737
0.198272
0.219089
0.220129
0.210357
0.204418
0.209
0.228136
0.272798
0.801293
0.200869
0.43776
0.586293
0.705182
0.79684
0.884895
0.964514
1.0557
1.15455
1.25734
1.37809
1.56241
0.0520443
0.110839
0.159998
0.197377
0.217939
0.21933
0.209714
0.204132
0.208932
0.228188
0.272854
0.800356
0.200978
0.438013
0.586619
0.70557
0.797282
0.885388
0.965047
1.05629
1.15517
1.25795
1.37862
1.56273
0.0520751
0.110943
0.16027
0.19778
0.218493
0.219767
0.210088
0.204406
0.20914
0.228388
0.273104
0.801184
0.200894
0.437829
0.586452
0.70543
0.797159
0.885267
0.964932
1.05617
1.15507
1.25792
1.37872
1.56312
0.0520627
0.110885
0.160054
0.197408
0.217942
0.219301
0.209678
0.20409
0.208904
0.228194
0.272952
0.801097
0.201107
0.438264
0.587011
0.706085
0.797874
0.886032
0.965737
1.05701
1.15593
1.25876
1.37949
1.56381
)
;
    }
    stator
    {
        type            kqRWallFunction;
        value           nonuniform List<scalar> 
192
(
0.15342
0.168807
0.182213
0.196491
0.210092
0.212243
0.20321
0.185203
0.156508
0.115936
0.0729366
0.029828
0.0166976
0.0238983
0.0385639
0.0472905
0.0525652
0.0581297
0.067405
0.0795648
0.0926267
0.106502
0.121417
0.137328
0.153394
0.168841
0.182269
0.196584
0.210195
0.212341
0.203297
0.18528
0.156568
0.115974
0.0729557
0.0298332
0.0167413
0.023957
0.0386813
0.0474534
0.0527637
0.0583368
0.0675841
0.0797181
0.0927448
0.106573
0.121438
0.137305
0.153344
0.16877
0.182193
0.196499
0.210113
0.212258
0.203233
0.185229
0.156545
0.115981
0.0729684
0.029841
0.0167143
0.0239067
0.0385921
0.0473327
0.0526077
0.0581569
0.0674001
0.079551
0.0926076
0.106471
0.121366
0.137254
0.153298
0.168722
0.182132
0.196449
0.210031
0.212153
0.203108
0.185103
0.156414
0.115856
0.0728807
0.0298022
0.0166934
0.0238944
0.0385578
0.0472853
0.0525659
0.05814
0.0674483
0.0796076
0.0926276
0.106434
0.121309
0.137278
0.433381
0.282846
0.218645
0.178454
0.149072
0.125162
0.104062
0.0859865
0.0694591
0.0535322
0.0382227
0.0166976
0.381409
0.0969834
0.0687899
0.0698135
0.0732309
0.0753272
0.0768539
0.0751349
0.068955
0.058731
0.0437986
0.029828
0.434421
0.283607
0.219252