/*--------------------------------*- C++ -*----------------------------------*\
| =========                 |                                                 |
| \\      /  F ield         | OpenFOAM: The Open Source CFD Toolbox           |
|  \\    /   O peration     | Version:  v1912                                 |
|   \\  /    A nd           | Website:  www.openfoam.com                      |
|    \\/     M anipulation  |                                                 |
\*---------------------------------------------------------------------------*/
FoamFile
{
    version     2.0;
    format      ascii;
    class       volScalarField;
    location    "200";
    object      nut;
}
// * * * * * * * * * * * * * * * * * * * * * * * * * * * * * * * * * * * * * //

dimensions      [0 2 -1 0 0 0 0];


internalField   nonuniform List<scalar> 
3072
(
3.52973e-05
7.34982e-05
7.85218e-05
7.60262e-05
7.73862e-05
9.50974e-05
0.000163685
0.000197826
0.000211004
0.000218481
0.000222753
0.000224538
5.75099e-05
0.000171154
0.000193545
0.000118502
0.000157689
0.000192877
0.000279309
0.000404523
0.000567916
0.000757613
0.000961321
0.00114374
7.64457e-05
0.000316516
0.000304243
0.000269877
0.000325367
0.000469004
0.000692697
0.000990941
0.00131393
0.00162817
0.0019129
0.00214288
9.31573e-05
0.000392227
0.000412335
0.000425567
0.000578874
0.000840201
0.00117855
0.00155644
0.00193555
0.00228813
0.00258774
0.00282044
0.000106511
0.000492818
0.00055993
0.000624427
0.000852575
0.00118652
0.00157651
0.0019739
0.00235788
0.00270889
0.00300758
0.00324455
0.000115501
0.000557469
0.000683974
0.000818677
0.00108959
0.00144728
0.00184118
0.00223216
0.00260384
0.00294033
0.00322712
0.00346053
0.0001214
0.00061547
0.00077993
0.000970072
0.00124992
0.00160309
0.00198162
0.00235622
0.00271341
0.00302843
0.00329773
0.00351857
0.000127953
0.000686866
0.000903956
0.00110567
0.00139534
0.00172367
0.00206233
0.00239566
0.00271743
0.00299939
0.0032438
0.0034494
0.000137577
0.00075973
0.00105778
0.00133824
0.00162235
0.00189861
0.00216729
0.00243085
0.00268762
0.00292658
0.00313323
0.00330994
0.000152158
0.000864427
0.00129642
0.00163855
0.00190251
0.00210547
0.0022815
0.00245725
0.00263035
0.00280496
0.00297301
0.00312712
0.00017552
0.000853927
0.00144859
0.00181005
0.00204653
0.00219073
0.00233346
0.00244888
0.00256254
0.00267566
0.00279078
0.00290486
0.000316273
0.000811527
0.00151758
0.00193547
0.00214501
0.00229242
0.00240688
0.00248838
0.00255738
0.00262146
0.00268617
0.00275427
0.00022395
0.000223105
0.000221008
0.000217662
0.000212668
0.000206483
0.000198492
0.000188547
0.000175593
0.00015929
0.000141454
6.8901e-05
0.00130433
0.00140119
0.00144982
0.0014085
0.00133386
0.00121959
0.00106886
0.00087706
0.00067262
0.00041683
0.000200489
0.000114224
0.00229023
0.00238954
0.00241183
0.00235843
0.00223978
0.00206922
0.00184529
0.0015484
0.00119077
0.000787694
0.000344461
0.000146314
0.00297451
0.00308606
0.00312773
0.00309859
0.00299126
0.00281777
0.00256974
0.00222011
0.00177114
0.00122675
0.000596132
0.000175867
0.00340859
0.00353083
0.00359309
0.00359366
0.00352172
0.00337705
0.00315167
0.00280369
0.0023122
0.00166172
0.000860219
0.000203321
0.00363334
0.00376188
0.00383823
0.0038629
0.00383148
0.00373896
0.00357513
0.00327896
0.00280175
0.00210022
0.00116352
0.000231523
0.00369124
0.00382175
0.00390936
0.00395161
0.00394947
0.00390443
0.00380566
0.00360219
0.0032104
0.00251945
0.00148882
0.000259738
0.003619
0.0037512
0.00384606
0.00390398
0.00392737
0.00392363
0.00388215
0.00376584
0.00349786
0.00287815
0.00178151
0.000290665
0.0034603
0.00358443
0.0036809
0.00374863
0.00378938
0.00382086
0.00382718
0.00380705
0.0036673
0.003184
0.00203077
0.000323677
0.0032542
0.00336352
0.00345018
0.00351632
0.00356993
0.0036297
0.00366638
0.00372056
0.00372522
0.00341541
0.0023176
0.000358381
0.0030131
0.00310901
0.0031888
0.00325524
0.00331367
0.00338883
0.00345165
0.00354334
0.00365258
0.00357436
0.00266251
0.000396699
0.00282282
0.00289102
0.00295606
0.00301557
0.00307157
0.00314718
0.00323765
0.00333346
0.0034951
0.0036164
0.00306116
0.000445262
3.52702e-05
7.33958e-05
7.83789e-05
7.58537e-05
7.71145e-05
9.434e-05
0.000163071
0.000197536
0.000210828
0.000218331
0.000222645
0.000224449
5.74274e-05
0.000171343
0.000194161
0.000118181
0.000156188
0.000191842
0.000277811
0.000402744
0.000565412
0.000755057
0.000958802
0.00114144
7.62752e-05
0.000316396
0.000304249
0.000269728
0.000322726
0.000465862
0.000688316
0.000986096
0.00130864
0.00162307
0.00190816
0.0021392
9.29422e-05
0.000391451
0.000411134
0.000423054
0.000574619
0.000835148
0.0011723
0.00154986
0.00192836
0.00227928
0.00257973
0.00281563
0.000106237
0.000491349
0.000557841
0.000622369
0.00084723
0.00118027
0.00156958
0.00196691
0.00235078
0.00270211
0.00300152
0.00323985
0.00011527
0.000556162
0.000680475
0.000812611
0.00108408
0.00144094
0.00183437
0.00222496
0.00259601
0.00293373
0.00322131
0.00345573
0.000121189
0.000614172
0.000776892
0.000965563
0.0012445
0.00159703
0.00197521
0.00234953
0.00270627
0.00302216
0.00329214
0.00351375
0.000127853
0.000686608
0.000901671
0.00110253
0.00139135
0.00171898
0.00205717
0.00239024
0.00271169
0.00299381
0.00323844
0.00344452
0.000137552
0.000759552
0.00105719
0.0013369
0.00162036
0.00189584
0.00216382
0.0024273
0.00268355
0.00292186
0.00312852
0.00330539
0.000152177
0.000865217
0.00129728
0.00163896
0.00190247
0.00210473
0.00227975
0.00245511
0.00262783
0.00280112
0.00296872
0.00312278
0.000175546
0.000854403
0.00144851
0.00180965
0.00204613
0.00218981
0.0023323
0.00244713
0.00256022
0.0026727
0.00278725
0.00290101
0.000316117
0.000810948
0.00151687
0.00193432
0.00214449
0.00229129
0.00240566
0.00248684
0.00255543
0.00261905
0.00268327
0.00275096
0.000223865
0.000223015
0.000220954
0.000217617
0.000212623
0.000206439
0.000198447
0.000188505
0.000175556
0.000159254
0.00014141
6.88895e-05
0.00130251
0.00140007
0.00144907
0.00140804
0.00133366
0.00121958
0.00106895
0.000877147
0.000672686
0.000416849
0.000200473
0.000114198
0.00228748
0.00238745
0.00241034
0.00235745
0.00223921
0.00206902
0.00184521
0.0015484
0.00119079
0.000787759
0.000344477
0.000146288
0.00297088
0.00308326
0.00312564
0.0030971
0.00299027
0.00281735
0.00256954
0.00222004
0.00177111
0.00122676
0.000596169
0.000175843
0.00340462
0.00352773
0.00359077
0.0035921
0.00352083
0.00337686
0.00315165
0.00280373
0.00231222
0.0016617
0.000860217
0.000203295
0.00362956
0.0037588
0.00383586
0.00386133
0.00383064
0.00373888
0.00357539
0.00327919
0.00280184
0.00210015
0.00116344
0.000231497
0.00368722
0.00381848
0.00390681
0.00394999
0.00394869
0.00390427
0.0038059
0.00360254
0.0032107
0.00251943
0.00148861
0.00025971
0.00361474
0.00374768
0.00384318
0.00390208
0.00392624
0.00392326
0.00388237
0.00376646
0.00349849
0.00287832
0.00178138
0.000290632
0.00345609
0.00358078
0.00367772
0.00374634
0.00378785
0.00382019
0.00382707
0.00380755
0.00366821
0.00318436
0.00203064
0.000323645
0.00325011
0.0033597
0.00344679
0.00351354
0.00356787
0.00362863
0.00366581
0.00372078
0.00372623
0.00341623
0.00231758
0.000358357
0.00300911
0.0031052
0.00318525
0.00325213
0.00331112
0.00338744
0.00345051
0.00354322
0.0036536
0.00357551
0.00266275
0.000396693
0.00281929
0.00288741
0.00295258
0.0030124
0.00306876
0.00314561
0.00323627
0.00333306
0.00349588
0.00361823
0.00306194
0.000445292
3.5283e-05
7.34131e-05
7.84022e-05
7.58898e-05
7.72039e-05
9.47091e-05
0.000163441
0.000197791
0.000211046
0.000218549
0.000222851
0.000224648
5.74534e-05
0.000171172
0.000193747
0.000118189
0.000156715
0.000192436
0.000278635
0.000403822
0.000566974
0.000756866
0.00096084
0.00114366
7.63396e-05
0.000316365
0.00030425
0.000270235
0.000323927
0.00046743
0.000690507
0.00098879
0.0013119
0.00162666
0.00191203
0.00214306
9.3053e-05
0.000392006
0.00041144
0.000423841
0.000576578
0.000837627
0.00117551
0.00155361
0.00193326
0.00228661
0.00258693
0.00282066
0.000106383
0.000492247
0.000558873
0.00062217
0.00084988
0.00118341
0.00157332
0.00197114
0.00235574
0.00270755
0.00300711
0.00324513
0.0001154
0.000557085
0.000682745
0.000816456
0.00108689
0.00144431
0.00183833
0.00222974
0.002602
0.00293916
0.00322673
0.00346104
0.000121313
0.000615118
0.000778698
0.000968058
0.00124735
0.00160043
0.00197918
0.00235419
0.00271194
0.0030275
0.00329749
0.00351913
0.000127945
0.000687139
0.000903056
0.00110438
0.00139375
0.00172195
0.00206066
0.00239421
0.00271635
0.00299869
0.00324358
0.00344981
0.000137621
0.000760076
0.00105814
0.00133833
0.00162225
0.00189826
0.00216675
0.00243027
0.00268709
0.00292618
0.00313311
0.00331023
0.00015224
0.000865578
0.00129808
0.00164018
0.00190404
0.00210671
0.00228223
0.00245778
0.00263078
0.00280501
0.00297311
0.0031275
0.000175619
0.00085492
0.00144956
0.00181117
0.00204791
0.00219198
0.00233474
0.00244989
0.00256334
0.00267622
0.00279118
0.00290527
0.000316262
0.000811701
0.00151815
0.00193622
0.00214653
0.00229372
0.00240832
0.00248971
0.00255852
0.00262235
0.00268682
0.00275478
0.000224069
0.000223234
0.000221133
0.000217785
0.000212783
0.000206586
0.000198584
0.000188627
0.000175663
0.000159337
0.000141458
6.89456e-05
0.00130477
0.00140217
0.00145115
0.00141002
0.00133548
0.00122114
0.00107032
0.000878173
0.000673382
0.000417231
0.000200613
0.000114255
0.00229124
0.00239115
0.00241393
0.00236085
0.00224236
0.00207174
0.00184761
0.00155032
0.00119215
0.000788545
0.000344769
0.000146357
0.00297567
0.00308795
0.0031302
0.00310147
0.00299439
0.00282098
0.00257278
0.00222274
0.00177312
0.00122799
0.000596647
0.000175924
0.00340984
0.00353289
0.00359586
0.00359702
0.00352553
0.0033811
0.0031555
0.00280706
0.00231481
0.00166338
0.000860936
0.000203386
0.00363472
0.00376401
0.00384115
0.00386653
0.00383567
0.00374356
0.00357963
0.00328298
0.00280491
0.00210223
0.00116438
0.000231597
0.00369259
0.0038239
0.00391227
0.00395537
0.00395389
0.00390919
0.00381044
0.00360655
0.00321402
0.0025218
0.00148979
0.000259819
0.00362012
0.00375313
0.00384867
0.00390746
0.00393147
0.00392826
0.00388705
0.00377062
0.00350187
0.00288082
0.0017826
0.00029075
0.00346114
0.003586
0.00368308
0.00375166
0.00379304
0.00382516
0.00383181
0.0038118
0.00367174
0.00318703
0.00203192
0.000323768
0.00325492
0.00336471
0.00345198
0.00351869
0.00357293
0.00363345
0.00367047
0.003725
0.00372974
0.00341873
0.00231884
0.000358479
0.0030137
0.0031099
0.00319007
0.00325696
0.00331592
0.00339196
0.00345474
0.00354721
0.00365698
0.00357806
0.00266393
0.000396808
0.00282331
0.00289164
0.00295693
0.00301677
0.00307314
0.00314963
0.00324021
0.00333666
0.00349895
0.00362044
0.00306297
0.000445397
3.52759e-05
7.34109e-05
7.83963e-05
7.587e-05
7.71308e-05
9.43317e-05
0.000163045
0.000197488
0.000210767
0.000218259
0.000222566
0.000224364
5.74384e-05
0.000171387
0.00019419
0.000118145
0.000156325
0.000191762
0.000277726
0.000402556
0.000565115
0.000754612
0.000958217
0.00114068
7.62869e-05
0.000316434
0.000304349
0.000269806
0.00032267
0.00046559
0.000687984
0.000985589
0.00130799
0.00162224
0.00190719
0.00213788
9.29465e-05
0.000391424
0.000411024
0.000422835
0.000574273
0.000834679
0.00117175
0.00154913
0.00192822
0.00228106
0.00258089
0.00281427
0.000106236
0.000491152
0.000557523
0.000621861
0.000846835
0.00117974
0.00156894
0.00196614
0.0023501
0.00270151
0.00300061
0.00323823
0.00011526
0.000555882
0.000680011
0.000811883
0.0010836
0.00144039
0.00183374
0.00222424
0.00259523
0.00293283
0.00322013
0.00345403
0.000121176
0.000613874
0.00077643
0.000964952
0.00124388
0.00159638
0.00197454
0.00234881
0.00270551
0.00302119
0.00329091
0.00351217
0.000127838
0.000686331
0.000901187
0.00110195
0.00139073
0.00171836
0.00205655
0.0023896
0.00271096
0.00299297
0.00323741
0.00344325
0.000137541
0.000759306
0.00105678
0.00133641
0.00161985
0.00189533
0.00216331
0.00242677
0.00268296
0.00292116
0.00312776
0.0033045
0.000152176
0.000865161
0.00129719
0.00163893
0.00190242
0.00210462
0.00227957
0.00245488
0.00262757
0.00280067
0.00296813
0.00312202
0.000175573
0.000854668
0.00144892
0.00181023
0.00204668
0.00219019
0.00233271
0.00244741
0.00256038
0.00267271
0.00278709
0.00290066
0.000316251
0.000811585
0.00151777
0.00193556
0.00214561
0.00229252
0.00240678
0.0024878
0.00255624
0.00261966
0.00268368
0.00275117
0.000223784
0.000222942
0.000220869
0.000217538
0.000212551
0.000206376
0.000198393
0.000188462
0.000175523
0.000159239
0.000141431
6.88679e-05
0.00130156
0.00139892
0.0014478
0.00140669
0.00133231
0.00121833
0.00106776
0.000876264
0.00067211
0.00041658
0.000200408
0.000114186
0.00228587
0.00238563
0.00240835
0.00235536
0.00223712
0.00206708
0.00184347
0.00154699
0.00118979
0.00078716
0.000344274
0.000146272
0.00296905
0.00308116
0.00312334
0.00309467
0.00298779
0.00281494
0.00256731
0.00221816
0.00176971
0.0012259
0.000595821
0.000175815
0.00340263
0.00352546
0.00358827
0.00358938
0.00351793
0.00337391
0.00314891
0.00280134
0.00231038
0.00166054
0.000859733
0.00020326
0.00362733
0.00375632
0.00383322
0.00385844
0.00382751
0.0037356
0.00357222
0.00327637
0.00279962
0.00209874
0.00116284
0.000231454
0.00368524
0.00381619
0.00390426
0.00394706
0.00394544
0.00390088
0.00380252
0.00359943
0.00320814
0.00251776
0.00148795
0.00025966
0.00361315
0.00374569
0.00384087
0.00389935
0.00392319
0.00391994
0.00387889
0.00376304
0.00349557
0.00287637
0.0017806
0.000290575
0.00345487
0.00357913
0.00367573
0.0037439
0.00378507
0.00381703
0.0038237
0.00380408
0.00366495
0.00318209
0.00202977
0.000323581
0.00324919
0.00335842
0.0034451
0.00351156
0.00356552
0.0036258
0.00366275
0.00371743
0.00372278
0.0034136
0.00231659
0.000358284
0.00300852
0.00310439
0.00318413
0.00325069
0.00330934
0.00338502
0.00344795
0.00354016
0.0036501
0.00357249
0.00266161
0.000396612
0.00281928
0.00288711
0.00295199
0.0030115
0.00306754
0.00314366
0.00323419
0.00333043
0.00349266
0.00361475
0.00306044
0.000445199
0.00192263
0.00198329
0.00209693
0.00225741
0.00237087
0.0024409
0.0025231
0.00259022
0.0026267
0.00265149
0.00267084
0.00269433
0.00296737
0.00281388
0.00274075
0.00272343
0.00272859
0.00272066
0.00272153
0.00272073
0.00271859
0.00270486
0.00269319
0.00269501
0.0035406
0.00340239
0.0032881
0.00318607
0.00310657
0.00303014
0.00296641
0.00289574
0.00285213
0.00281237
0.00278793
0.00275068
0.00376571
0.00367333
0.00356863
0.00345846
0.00334968
0.00324223
0.00314292
0.00305018
0.00294942
0.00287689
0.00283076
0.00279944
0.00272092
0.00275435
0.00279473
0.00283862
0.00288793
0.00295734
0.00306435
0.00315238
0.00332638
0.00360556
0.00396156
0.00197563
0.00269333
0.00270141
0.00271545
0.00274173
0.00278316
0.00284727
0.00295759
0.00304433
0.00320317
0.0034751
0.00407845
0.00323128
0.00270176
0.00269361
0.00269501
0.00271912
0.00276388
0.00282825
0.00292738
0.00304158
0.0031902
0.00337958
0.00383397
0.00371354
0.00277769
0.00275944
0.00274465
0.00277819
0.00283328
0.00291062
0.0030124
0.00314405
0.00330041
0.0034495
0.00373266
0.00381735
0.00192044
0.00198119
0.00209452
0.00225497
0.00236912
0.002439
0.00252095
0.00258824
0.0026245
0.00264914
0.00266815
0.00269134
0.00296451
0.00281075
0.00273756
0.00272025
0.00272551
0.00271632
0.00272031
0.00271825
0.00271589
0.00270236
0.00269027
0.00269199
0.00353708
0.00339859
0.00328448
0.00318243
0.00310284
0.00302653
0.00296616
0.00289139
0.00284851
0.0028092
0.00278483
0.00274765
0.0037622
0.00366947
0.00356483
0.00345473
0.0033458
0.00323853
0.00313986
0.00304672
0.00294661
0.002874
0.00282814
0.00279693
0.00271773
0.00275107
0.00279149
0.00283568
0.00288524
0.00295603
0.00306321
0.0031522
0.00332743
0.00360789
0.00396443
0.00197718
0.00269026
0.0026984
0.00271263
0.00273932
0.00278102
0.00284668
0.00295731
0.00304501
0.00320512
0.00347845
0.00408323
0.00323511
0.00269885
0.00269105
0.00269284
0.00271766
0.00276292
0.00282897
0.00292855
0.00304374
0.00319381
0.00338417
0.00383998
0.00371942
0.0027757
0.00275825
0.00274406
0.00277857
0.00283451
0.00291317
0.00301553
0.00314812
0.00330578
0.00345554
0.00373954
0.00382426
0.00192221
0.00198319
0.002097
0.0022578
0.00237204
0.00244211
0.00252423
0.00259153
0.00262787
0.00265245
0.00267158
0.00269489
0.00296822
0.00281456
0.00274149
0.00272427
0.00272966
0.00272189
0.00272272
0.00272187
0.00271966
0.00270574
0.00269389
0.00269555
0.0035427
0.00340395
0.00328962
0.00318739
0.00310773
0.00303124
0.00296739
0.00289662
0.00285293
0.00281305
0.00278853
0.00275115
0.00376874
0.00367558
0.00357051
0.00346005
0.00335073
0.00324299
0.00314355
0.00305072
0.00294991
0.0028774
0.00283127
0.00279998
0.00272137
0.00275482
0.00279534
0.0028395
0.00288906
0.00295929
0.00306643
0.00315504
0.00332976
0.00360955
0.00396508
0.00197728
0.00269373
0.00270181
0.00271595
0.00274249
0.00278413
0.00284902
0.00295952
0.00304677
0.0032063
0.00347904
0.00408311
0.00323449
0.0027021
0.00269398
0.00269555
0.00271999
0.00276501
0.00283011
0.00292947
0.00304415
0.00319339
0.00338337
0.00383877
0.00371789
0.00277825
0.00276007
0.00274563
0.00277956
0.00283499
0.00291282
0.00301484
0.00314686
0.00330381
0.00345329
0.00373715
0.00382187
0.00192195
0.00198286
0.00209633
0.00225693
0.002371
0.0024409
0.00252274
0.00258986
0.00262599
0.00265035
0.00266916
0.00269212
0.00296741
0.00281355
0.00274033
0.00272298
0.00272827
0.00272045
0.00272114
0.00272019
0.00271792
0.0027039
0.00269177
0.00269322
0.00354102
0.00340223
0.00328794
0.00318567
0.00310599
0.00302953
0.0029657
0.00289492
0.00285113
0.00281125
0.00278669
0.00274922
0.0037664
0.00367331
0.00356836
0.00345799
0.00334878
0.00324117
0.00314179
0.00304899
0.0029483
0.00287566
0.00282951
0.00279815
0.00271825
0.00275129
0.00279138
0.00283522
0.00288449
0.00295449
0.00306148
0.00314989
0.00332439
0.0036043
0.00396164
0.00197621
0.00269118
0.00269897
0.00271287
0.00273912
0.00278047
0.00284525
0.00295564
0.00304271
0.00320202
0.00347455
0.00407894
0.00323273
0.00269999
0.00269171
0.00269305
0.00271731
0.00276211
0.00282723
0.00292645
0.00304098
0.00319024
0.00337997
0.00383485
0.00371531
0.00277641
0.00275816
0.0027435
0.00277733
0.00283266
0.00291053
0.00301254
0.0031446
0.00330161
0.00345096
0.00373431
0.00381896
0.00373134
0.00362739
0.00350836
0.00338241
0.00325565
0.00312984
0.00302157
0.0029382
0.00285915
0.00280271
0.0027815
0.00279364
0.00368414
0.00357162
0.00343957
0.00329756
0.00315344
0.00301512
0.0029114
0.00282757
0.00275373
0.00270152
0.00268628
0.00270444
0.00362787
0.0035114
0.00336837
0.00321096
0.00305271
0.00291367
0.00279686
0.00269016
0.00258866
0.00250009
0.002424
0.00234855
0.0035643
0.00345039
0.00329858
0.00313127
0.00296926
0.00282333
0.00267558
0.00251512
0.00234075
0.00212772
0.00188446
0.00158276
0.00284549
0.00290274
0.00292978
0.0030021
0.00310187
0.00322293
0.0033531
0.00348296
0.00360131
0.00370397
0.00379796
0.00380043
0.00279683
0.00298823
0.00303797
0.00313223
0.0032623
0.00340645
0.00353581
0.00364582
0.00372741
0.00378556
0.00380081
0.00375885
0.00241005
0.00294046
0.0030781
0.00321742
0.00337473
0.0035093
0.00362619
0.0037084
0.00375925
0.00378249
0.00376426
0.00370833
0.00145548
0.00265856
0.00302658
0.00324796
0.00340605
0.00353932
0.0036336
0.00369436
0.00372648
0.00373129
0.00370369
0.0036449
0.00372746
0.0036234
0.00350456
0.00337874
0.0032521
0.00312645
0.00301833
0.00293524
0.00285694
0.00280134
0.00278085
0.00279315
0.00368025
0.00356797
0.00343618
0.0032944
0.00315047
0.00301184
0.00290832
0.00282493
0.00275049
0.00270217
0.00268883
0.00270602
0.00362426
0.00350836
0.0033657
0.00320848
0.0030503
0.0029107
0.00279415
0.00268836
0.00258778
0.00250086
0.00242606
0.00235003
0.00356126
0.00344812
0.0032967
0.00312966
0.00296725
0.00282085
0.00267335
0.00251386
0.00234037
0.00212834
0.00188534
0.00158386
0.00284575
0.00290406
0.00293201
0.00300532
0.00310594
0.0032278
0.00335842
0.00348876
0.00360765
0.00371067
0.00380481
0.0038071
0.00279849
0.00299118
0.00304192
0.00313708
0.00326784
0.0034125
0.00354216
0.00365237
0.0037341
0.00379231
0.00380735
0.00376513
0.00241194
0.00294404
0.00308283
0.00322299
0.00338095
0.00351598
0.00363312
0.00371536
0.00376607
0.00378909
0.00377036
0.00371388
0.00145693
0.00266184
0.00303136
0.00325368
0.00341266
0.00354644
0.00364095
0.00370159
0.00373331
0.00373758
0.00370931
0.00364986
0.0037337
0.00362904
0.00350963
0.00338331
0.00325623
0.00313021
0.003022
0.00293874
0.00285951
0.00280344
0.00278249
0.00279457
0.00368595
0.00357286
0.00344044
0.00329817
0.00315381
0.0030154
0.00291186
0.00282769
0.00275232
0.00270292
0.00268844
0.00270577
0.00362934
0.00351248
0.0033691
0.00321157
0.00305319
0.00291399
0.0027972
0.00269053
0.00258908
0.00250115
0.00242547
0.00234969
0.00356561
0.00345145
0.00329941
0.00313209
0.00296992
0.00282372
0.00267591
0.00251557
0.00234132
0.00212848
0.00188515
0.00158363
0.00284665
0.00290424
0.00293165
0.00300425
0.00310423
0.0032255
0.00335582
0.00348592
0.00360462
0.00370764
0.00380186
0.00380426
0.00279827
0.00299018
0.00304026
0.00313468
0.0032648
0.00340898
0.0035384
0.00364855
0.00373036
0.00378875
0.00380403
0.00376196
0.00241147
0.00294246
0.00308046
0.00321985
0.00337711
0.00351165
0.00362855
0.0037108
0.00376175
0.00378512
0.00376678
0.0037106
0.00145652
0.0026603
0.00302882
0.00325015
0.00340826
0.00354153
0.00363575
0.00369646
0.00372856
0.00373334
0.00370557
0.00364649
0.00373099
0.00362652
0.00350731
0.00338118
0.00325427
0.00312838
0.00302007
0.00293689
0.00285791
0.00280177
0.00278066
0.00279275
0.00368301
0.00357023
0.00343806
0.003296
0.00315188
0.00301334
0.00290985
0.00282604
0.00275133
0.00270122
0.00268623
0.00270402
0.00362627
0.00350978
0.00336671
0.00320936
0.00305116
0.00291188
0.0027952
0.00268885
0.00258773
0.00249981
0.00242408
0.00234837
0.00356253
0.00344876
0.003297
0.00312988
0.0029678
0.00282164
0.00267401
0.00251396
0.00234001
0.00212741
0.00188453
0.00158279
0.00284475
0.0029022
0.00292955
0.00300227
0.00310247
0.00322404
0.00335467
0.00348495
0.00360365
0.00370642
0.00380049
0.00380279
0.00279644
0.00298801
0.00303809
0.00313287
0.00326356
0.00340833
0.00353844
0.00364889
0.00373065
0.00378867
0.00380388
0.00376186
0.00241006
0.00294032
0.00307835
0.00321836
0.00337662
0.00351205
0.00362978
0.00371244
0.00376333
0.00378618
0.00376747
0.00371214
0.00145572
0.00265847
0.00302689
0.00324914
0.00340852
0.00354285
0.003638
0.00369918
0.00373124
0.00373565
0.00370754
0.00364849
0.00349829
0.00339252
0.00323627
0.00306177
0.00290345
0.00273485
0.00253584
0.00230531
0.00202296
0.00163478
0.00100663
0.000319241
0.00342985
0.0033388
0.00318574
0.00300916
0.00285258
0.0026579
0.00241185
0.0021145
0.00174765
0.00126031
0.000571765
0.000167234
0.00335591
0.00328615
0.00314515
0.00297685
0.00283504
0.0026162
0.0023331
0.00198932
0.00158172
0.00109738
0.000488834
0.000146717
0.00327183
0.00322638
0.00310769
0.00296099
0.00283905
0.00260543
0.00230773
0.0019439
0.00153326
0.00113556
0.000595369
0.000152829
0.00316766
0.00314977
0.00306389
0.00294769
0.00284894
0.00261852
0.0023231
0.00196225
0.0015734
0.00124013
0.000738322
0.00016138
0.00303063
0.00304209
0.00299409
0.00290988
0.00283463
0.00262699
0.00234967
0.00200674
0.00164095
0.00129291
0.000849227
0.000168626
0.00284426
0.00288435
0.00287397
0.00282284
0.00277237
0.00259815
0.00234867
0.0020295
0.001674
0.00129587
0.000849092
0.000175325
0.00258631
0.00265174
0.00267497
0.00265561
0.00263004
0.00249301
0.00227653
0.00198372
0.00163228
0.00123594
0.000790809
0.000178175
0.00222412
0.0023078
0.0023569
0.00236454
0.00236148
0.00226081
0.00208139
0.00182247
0.00148374
0.00109555
0.000679822
0.000175327
0.00170759
0.0017945
0.00185494
0.00188189
0.00189307
0.00182552
0.00168979
0.00148949
0.0011901
0.000851095
0.000499327
0.000166054
0.000964999
0.0010235
0.00107125
0.00110244
0.00111578
0.00108076
0.00100579
0.000899969
0.00070245
0.000474534
0.000254129
0.00014702
0.000108224
0.000113553
0.000118052
0.00012278
0.000126964
0.000127621
0.000124892
0.000119262
0.000109697
9.45094e-05
7.49525e-05
4.78903e-05
0.000344239
0.00214059
0.00288849
0.00319222
0.00337424
0.00349333
0.00357228
0.00362229
0.00364759
0.00364853
0.00362279
0.00357063
0.00028841
0.00189856
0.00273162
0.00308656
0.00327632
0.00338583
0.00345869
0.00350731
0.00353484
0.00354144
0.00352592
0.00348778
0.00026202
0.00173363
0.00256621
0.00294391
0.00312625
0.00323167
0.00330549
0.00335914
0.00339499
0.00341345
0.00341388
0.00339497
0.000244179
0.00159407
0.00239252
0.00276287
0.00293615
0.00304085
0.00311965
0.00318205
0.00322986
0.00326386
0.00328375
0.00328748
0.000229946
0.00145752
0.00220549
0.00255026
0.00271321
0.00281808
0.00290327
0.00297594
0.00303732
0.0030885
0.00312937
0.00315736
0.000216916
0.00131403
0.00199929
0.0023103
0.00246004
0.00256385
0.00265474
0.00273731
0.00281208
0.0028802
0.00294171
0.00299374
0.000203462
0.00115483
0.00177096
0.00204313
0.00217548
0.00227529
0.00236941
0.00245969
0.00254581
0.00262866
0.00270847
0.00278234
0.000190231
0.000963112
0.00151785
0.00174522
0.00185469
0.0019463
0.00203946
0.00213317
0.00222638
0.00231934
0.00241267
0.00250363
0.000175715
0.000753407
0.00123721
0.00140759
0.00148781
0.00156619
0.0016524
0.00174267
0.00183589
0.00193108
0.00202958
0.00212907
0.000158425
0.000537816
0.000914408
0.00100684
0.00105315
0.00111437
0.0011838
0.00125846
0.00134075
0.00142832
0.00152102
0.00161578
0.000137409
0.000314254
0.000500088
0.000515607
0.000528851
0.000564366
0.000610972
0.000660219
0.000715866
0.000774679
0.00083825
0.000903255
3.592e-05
4.26771e-05
5.42585e-05
6.01515e-05
6.34202e-05
6.66174e-05
7.16121e-05
7.78757e-05
8.40863e-05
9.01766e-05
9.62752e-05
0.000102391
0.00349592
0.003391
0.00323512
0.00306081
0.00290182
0.00273273
0.00253386
0.00230432
0.00202261
0.00163505
0.00100686
0.000319446
0.00342811
0.00333795
0.0031852
0.00300856
0.00285112
0.00265621
0.00241049
0.00211368
0.00174722
0.00126012
0.000571729
0.000167292
0.00335473
0.00328584
0.00314513
0.0029765
0.00283403
0.00261505
0.00233214
0.0019887
0.00158133
0.00109715
0.000488805
0.000146744
0.00327105
0.00322648
0.00310797
0.00296096
0.00283856
0.00260477
0.00230717
0.00194352
0.00153301
0.00113549
0.000595427
0.000152856
0.00316716
0.0031501
0.00306436
0.00294797
0.00284891
0.00261829
0.00232289
0.00196212
0.00157337
0.00124021
0.000738453
0.000161409
0.00303029
0.00304254
0.00299466
0.00291036
0.0028349
0.00262709
0.00234974
0.00200683
0.00164108
0.00129304
0.000849346
0.000168657
0.002844
0.00288483
0.00287458
0.00282341
0.0027728
0.00259845
0.0023489
0.00202972
0.00167421
0.00129602
0.000849189
0.000175356
0.00258609
0.00265218
0.00267554
0.00265619
0.00263052
0.00249339
0.00227684
0.00198398
0.00163249
0.00123607
0.000790895
0.000178206
0.00222393
0.00230818
0.00235741
0.00236506
0.00236194
0.00226119
0.0020817
0.00182272
0.00148391
0.00109565
0.000679885
0.000175355
0.00170745
0.00179482
0.00185536
0.00188233
0.00189345
0.00182584
0.00169006
0.00148969
0.00119019
0.000851157
0.000499363
0.000166078
0.000965044
0.0010237
0.0010715
0.00110267
0.001116
0.00108093
0.00100594
0.000900085
0.000702453
0.000474552
0.000254136
0.000147038
0.000108217
0.000113565
0.00011807
0.000122808
0.000126994
0.000127649
0.000124918
0.000119286
0.000109717
9.45248e-05
7.49623e-05
4.78944e-05
0.000344656
0.00214337
0.00289304
0.00319782
0.00338103
0.00350076
0.0035799
0.00362965
0.00365434
0.0036545
0.00362794
0.00357499
0.000288809
0.00190117
0.00273611
0.0030923
0.0032832
0.00339339
0.00346638
0.00351462
0.0035414
0.00354708
0.0035306
0.00349158
0.000262398
0.00173606
0.00257054
0.0029496
0.00313307
0.00323913
0.00331304
0.00336624
0.00340125
0.0034187
0.00341811
0.00339825
0.000244536
0.00159634
0.00239659
0.00276837
0.00294273
0.00304803
0.00312688
0.0031888
0.00323573
0.00326869
0.00328753
0.00329031
0.000230283
0.0014596
0.00220928
0.00255543
0.00271939
0.00282482
0.00291002
0.00298221
0.00304273
0.00309288
0.00313273
0.00315978
0.000217232
0.00131591
0.00200275
0.00231504
0.00246569
0.00256999
0.00266088
0.00274299
0.00281696
0.0028841
0.00294464
0.0029958
0.000203757
0.00115646
0.00177405
0.00204736
0.00218049
0.00228071
0.00237483
0.00246469
0.00255008
0.00263203
0.00271097
0.00278406
0.000190509
0.000964405
0.00152052
0.00174886
0.00185895
0.00195088
0.00204403
0.00213738
0.00222996
0.00232214
0.00241471
0.00250499
0.000175972
0.000754396
0.00123942
0.00141056
0.0014912
0.00156979
0.00165598
0.00174596
0.00183868
0.00193324
0.00203112
0.00213007
0.000158657
0.000538521
0.000916091
0.00100898
0.00105548
0.00111677
0.0011862
0.00126065
0.00134263
0.00142975
0.00152201
0.00161639
0.000137609
0.00031469
0.000501107
0.000516772
0.000530057
0.000565551
0.000612148
0.00066124
0.000716727
0.000775304
0.000838635
0.000903464
3.59696e-05
4.27319e-05
5.43437e-05
6.02574e-05
6.35413e-05
6.67355e-05
7.17045e-05
7.79462e-05
8.41359e-05
9.02035e-05
9.62812e-05
0.000102381
0.00349954
0.00339366
0.00323729
0.00306283
0.00290425
0.00273535
0.00253621
0.00230577
0.00202342
0.00163519
0.0010068
0.000319381
0.0034311
0.00334007
0.00318696
0.0030104
0.00285354
0.0026586
0.00241242
0.00211505
0.00174811
0.00126064
0.000571934
0.000167309
0.00335717
0.00328753
0.00314652
0.00297823
0.00283619
0.00261712
0.00233393
0.00199005
0.00158234
0.00109791
0.000489182
0.000146786
0.00327305
0.00322784
0.00310914
0.00296248
0.00284034
0.00260655
0.00230879
0.00194484
0.00153409
0.00113635
0.000595897
0.000152903
0.00316881
0.00315121
0.00306533
0.00294919
0.00285028
0.00261976
0.00232429
0.00196334
0.00157439
0.00124097
0.000738982
0.000161456
0.00303165
0.00304342
0.00299542
0.00291128
0.0028359
0.00262822
0.00235087
0.00200787
0.00164195
0.00129376
0.000849896
0.000168704
0.0028451
0.00288551
0.00287513
0.00282405
0.00277348
0.00259926
0.00234975
0.00203055
0.00167495
0.00129667
0.000849711
0.000175404
0.00258692
0.00265267
0.00267591
0.00265658
0.00263093
0.00249392
0.00227742
0.00198462
0.00163316
0.00123666
0.000791394
0.00017825
0.00222449
0.00230847
0.00235759
0.00236525
0.00236211
0.00226146
0.00208204
0.00182317
0.00148443
0.00109614
0.000680284
0.000175399
0.00170775
0.00179492
0.00185538
0.00188232
0.00189343
0.0018259
0.00169017
0.00148994
0.00119056
0.000851497
0.000499647
0.000166118
0.000965097
0.00102365
0.00107141
0.00110255
0.00111585
0.00108084
0.00100592
0.000900116
0.000702698