/*--------------------------------*- C++ -*----------------------------------*\
| =========                 |                                                 |
| \\      /  F ield         | OpenFOAM: The Open Source CFD Toolbox           |
|  \\    /   O peration     | Version:  v1912                                 |
|   \\  /    A nd           | Website:  www.openfoam.com                      |
|    \\/     M anipulation  |                                                 |
\*---------------------------------------------------------------------------*/
FoamFile
{
    version     2.0;
    format      ascii;
    class       volScalarField;
    location    "200";
    object      p;
}
// * * * * * * * * * * * * * * * * * * * * * * * * * * * * * * * * * * * * * //

dimensions      [0 2 -2 0 0 0 0];


internalField   nonuniform List<scalar> 
3072
(
0.000399703
-0.187461
-0.365886
-0.442532
-0.460326
-0.411389
-0.231808
-0.0546285
-0.450232
-1.13971
-1.81149
-2.29038
0.634547
0.344431
0.213583
0.213811
0.391457
0.633186
1.35056
2.08768
2.32395
2.41922
2.3985
2.33551
1.43523
1.12051
1.08168
1.2586
1.69073
2.14223
2.56913
2.93401
3.09994
3.19624
3.18472
3.16448
2.53374
2.34331
2.46358
2.83495
3.31213
3.73617
4.0885
4.33684
4.49987
4.63801
4.7264
4.78629
3.66782
3.62603
3.87776
4.31478
4.77141
5.16316
5.4776
5.71315
5.86803
5.97677
6.04484
6.08685
4.75994
4.85185
5.19237
5.66805
6.12862
6.50456
6.77879
6.97142
7.09822
7.18145
7.23075
7.25783
5.80005
6.03583
6.44713
6.96234
7.43584
7.77323
8.00059
8.14471
8.23027
8.27832
8.30057
8.3072
6.8507
7.22464
7.69087
8.22245
8.66514
8.95664
9.12824
9.21729
9.25483
9.26358
9.25724
9.24419
7.93247
8.46733
8.94895
9.44767
9.82407
10.0418
10.1427
10.1712
10.16
10.1316
10.1004
10.0729
9.04865
9.70459
10.1943
10.6243
10.9011
11.0175
11.0327
10.9965
10.9391
10.88
10.832
10.7976
10.19
11.0541
11.4512
11.7031
11.8465
11.8447
11.7719
11.6757
11.5812
11.5033
11.4516
11.422
11.0784
12.3946
12.6095
12.5829
12.5619
12.4512
12.3083
12.1722
12.0638
11.9895
11.9569
11.9513
-2.55174
-2.55655
-2.33172
-1.88183
-1.25017
-0.457428
0.438126
1.3581
2.2046
2.96316
3.33415
3.10126
2.28222
2.27797
2.33075
2.44907
2.62789
2.86326
3.1449
3.4234
3.68793
4.11357
4.14511
3.28977
3.15492
3.18879
3.27967
3.42367
3.5994
3.79488
3.98682
4.13037
4.1932
4.26193
4.1755
2.93222
4.83124
4.87559
4.9239
4.97706
5.03005
5.07545
5.09625
5.05884
4.91853
4.71326
4.45392
2.85589
6.11316
6.13152
6.14446
6.15291
6.15257
6.13279
6.08374
5.97958
5.77447
5.46014
5.1004
3.33403
7.27107
7.27508
7.2712
7.25956
7.23705
7.19418
7.12228
7.00193
6.79328
6.46778
6.09131
4.33352
8.30496
8.29737
8.28531
8.26901
8.24626
8.2118
8.15712
8.06621
7.91105
7.65631
7.36144
5.82364
9.22975
9.21583
9.20344
9.19325
9.18478
9.1766
9.16436
9.13847
9.08526
8.97837
8.87774
7.76131
10.0523
10.0378
10.0303
10.0311
10.0423
10.0673
10.1073
10.1622
10.2338
10.3186
10.503
10.0459
10.7784
10.7691
10.7698
10.783
10.8129
10.8677
10.9568
11.0917
11.2883
11.5793
12.1728
12.5739
11.4143
11.4165
11.4282
11.4526
11.4958
11.5694
11.6906
11.8848
12.1771
12.6482
13.7144
15.2437
11.9717
11.9931
12.0182
12.0509
12.0987
12.1756
12.3025
12.5146
12.8335
13.3754
14.5941
17.1497
0.00143201
-0.185395
-0.362848
-0.439208
-0.45566
-0.408835
-0.231379
-0.0511022
-0.440082
-1.12902
-1.79999
-2.28028
0.634906
0.345083
0.214354
0.214284
0.391316
0.633968
1.34348
2.08466
2.3238
2.4203
2.40074
2.33765
1.43288
1.11665
1.07682
1.25096
1.6822
2.13665
2.5642
2.93166
3.09914
3.19682
3.18624
3.16614
2.52916
2.33645
2.45429
2.82384
3.30245
3.72827
4.08327
4.33379
4.49783
4.63664
4.72562
4.78598
3.66287
3.61859
3.86783
4.30496
4.76408
5.15677
5.47265
5.70969
5.86576
5.97514
6.04381
6.08614
4.75586
4.84466
5.1836
5.66006
6.12145
6.4995
6.7749
6.96868
7.09613
7.18006
7.22964
7.25716
5.79777
6.02985
6.4398
6.95559
7.43019
7.76913
7.99765
8.1425
8.22872
8.27716
8.29979
8.30661
6.84925
7.21982
7.6849
8.21678
8.66086
8.95365
9.1261
9.21575
9.25374
9.26282
9.25671
9.24386
7.93128
8.4634
8.9441
9.44321
9.82083
10.0396
10.1412
10.1702
10.1593
10.1311
10.1001
10.0728
9.04744
9.70123
10.1905
10.6209
10.8987
11.0159
11.0317
10.9959
10.9388
10.8799
10.832
10.7977
10.1885
11.0511
11.4477
11.7003
11.8447
11.8437
11.7714
11.6755
11.5812
11.5034
11.4518
11.4223
11.0773
12.3914
12.6065
12.5808
12.5607
12.4506
12.3082
12.1723
12.0639
11.9898
11.9573
11.9517
-2.54252
-2.54903
-2.3254
-1.8771
-1.24671
-0.455435
0.438876
1.35747
2.20261
2.95994
3.33072
3.09821
2.28431
2.27974
2.33207
2.4499
2.6282
2.86304
3.14414
3.42207
3.68606
4.11113
4.14243
3.28737
3.15655
3.19012
3.28064
3.42432
3.59966
3.79472
3.98624
4.12938
4.19194
4.26045
4.1736
2.93081
4.83118
4.87562
4.92392
4.97702
5.02987
5.07509
5.09569
5.05809
4.91766
4.71236
4.4529
2.85569
6.11279
6.13126
6.14431
6.15273
6.15236
6.13248
6.08333
5.97904
5.77388
5.45959
5.09982
3.3342
7.27052
7.27477
7.27092
7.25933
7.23679
7.19389
7.12186
7.00146
6.79276
6.46726
6.09085
4.33369
8.30459
8.29708
8.28511
8.26881
8.24604
8.21148
8.15672
8.06567
7.9104
7.65582
7.36079
5.82344
9.22953
9.21572
9.20335
9.19318
9.18459
9.17631
9.16387
9.13779
9.08447
8.97735
8.87671
7.76029
10.0523
10.0379
10.0304
10.0312
10.0422
10.067
10.1068
10.1614
10.2326
10.3174
10.5015
10.044
10.7786
10.7694
10.7701
10.7832
10.8129
10.8675
10.9563
11.0908
11.287
11.5776
12.1707
12.5712
11.4147
11.4169
11.4286
11.453
11.496
11.5693
11.6902
11.8839
12.1755
12.6462
13.7119
15.2403
11.9722
11.9937
12.0187
12.0513
12.0989
12.1756
12.3022
12.5139
12.8322
13.3732
14.5915
17.1469
-9.62422e-05
-0.187272
-0.364951
-0.441327
-0.458399
-0.410554
-0.231975
-0.0530627
-0.445513
-1.13522
-1.80712
-2.28721
0.633679
0.343957
0.213363
0.213425
0.390753
0.633225
1.34622
2.08556
2.32331
2.41904
2.39868
2.33544
1.43254
1.11705
1.07778
1.25323
1.68497
2.13839
2.56581
2.93218
3.09888
3.19576
3.18456
3.16425
2.52956
2.33773
2.45674
2.82749
3.30578
3.73097
4.08488
4.33441
4.49797
4.63646
4.7251
4.78514
3.66356
3.6202
3.8706
4.30803
4.76631
5.15883
5.47414
5.7106
5.8661
5.97522
6.0435
6.08562
4.75641
4.8463
5.18599
5.66233
6.12372
6.50105
6.7761
6.96936
7.09659
7.18009
7.22951
7.25665
5.79777
6.03115
6.44172
6.95747
7.43194
7.77046
7.99856
8.14314
8.22899
8.27721
8.29954
8.30617
6.84898
7.22075
7.6864
8.21843
8.66222
8.95465
9.12681
9.21619
9.25391
9.26274
9.2564
9.24332
7.931
8.46409
8.9453
9.4445
9.82185
10.0403
10.1417
10.1704
10.1593
10.131
10.0997
10.0722
9.04713
9.70175
10.1913
10.6218
10.8993
11.0164
11.0319
10.996
10.9387
10.8796
10.8314
10.797
10.1883
11.0515
11.4485
11.701
11.8451
11.8439
11.7714
11.6753
11.5809
11.5029
11.4512
11.4214
11.077
12.392
12.6071
12.5813
12.5609
12.4507
12.308
12.1721
12.0636
11.9893
11.9565
11.9508
-2.54934
-2.55516
-2.33088
-1.88157
-1.25019
-0.457758
0.437618
1.35724
2.20328
2.96137
3.3327
3.10025
2.282
2.27757
2.33018
2.44838
2.62712
2.86247
3.14406
3.42247
3.68692
4.11251
4.14407
3.2886
3.15456
3.18821
3.27889
3.4228
3.59843
3.79384
3.98572
4.12922
4.19205
4.26084
4.17425
2.93098
4.83012
4.87445
4.92274
4.97589
5.02886
5.07426
5.09504
5.05761
4.9173
4.71204
4.4526
2.85473
6.11197
6.13033
6.14326
6.15169
6.15133
6.13153
6.08247
5.97832
5.77321
5.45894
5.0991
3.33289
7.26991
7.27391
7.27
7.25832
7.23579
7.19288
7.12097
7.00061
6.792
6.46661
6.09014
4.33251
8.3039
8.29628
8.28417
8.26782
8.245
8.21048
8.15577
8.06484
7.90972
7.65513
7.36038
5.8227
9.22881
9.21484
9.20237
9.19211
9.18354
9.17526
9.16295
9.13701
9.08382
8.9771
8.87665
7.7603
10.0515
10.0369
10.0293
10.03
10.0411
10.0659
10.1059
10.1606
10.2322
10.3172
10.5019
10.0448
10.7777
10.7683
10.7689
10.782
10.8117
10.8664
10.9553
11.0901
11.2866
11.5777
12.1715
12.5727
11.4136
11.4157
11.4274
11.4517
11.4947
11.5681
11.6892
11.8831
12.1752
12.6463
13.7129
15.2425
11.9711
11.9925
12.0174
12.05
12.0977
12.1744
12.3012
12.513
12.8317
13.3733
14.5924
17.149
0.000482792
-0.186441
-0.36399
-0.440382
-0.45689
-0.410035
-0.232492
-0.0522167
-0.441545
-1.13093
-1.80235
-2.28297
0.633895
0.343966
0.213184
0.213117
0.390167
0.632724
1.34265
2.084
2.32309
2.41947
2.39973
2.33646
1.43193
1.11562
1.07574
1.24997
1.68127
2.13565
2.56321
2.93061
3.09795
3.19548
3.18473
3.16449
2.52831
2.33556
2.4534
2.823
3.30165
3.72748
4.08241
4.33282
4.49677
4.6355
4.72437
4.78464
3.66208
3.61778
3.86706
4.30423
4.76335
5.15605
5.47186
5.70882
5.86481
5.97409
6.04266
6.08489
4.75511
4.8439
5.18291
5.65946
6.12093
6.49894
6.77426
6.96794
7.09527
7.17908
7.22854
7.25595
5.79706
6.02912
6.4392
6.95514
7.42988
7.76875
7.99717
8.14188
8.22795
8.27624
8.29873
8.30542
6.84858
7.21914
7.68439
8.21652
8.66072
8.95344
9.12574
9.21522
9.25304
9.26194
9.25566
9.24268
7.93065
8.4628
8.94372
9.44309
9.82079
10.0394
10.1409
10.1697
10.1586
10.1303
10.0991
10.0716
9.04682
9.7007
10.1902
10.6208
10.8986
11.0157
11.0313
10.9953
10.938
10.8789
10.8309
10.7965
10.1879
11.0506
11.4474
11.7001
11.8444
11.8433
11.7708
11.6748
11.5803
11.5023
11.4506
11.421
11.0765
12.3909
12.6061
12.5804
12.5602
12.45
12.3074
12.1714
12.0629
11.9887
11.956
11.9503
-2.54546
-2.55209
-2.32852
-1.88018
-1.24967
-0.458123
0.43659
1.35577
2.20163
2.95969
3.3304
3.09731
2.28291
2.27815
2.33033
2.44806
2.62633
2.8612
3.14244
3.42058
3.6848
4.11018
4.14155
3.28644
3.15478
3.18829
3.27878
3.42247
3.59784
3.79299
3.98461
4.12787
4.19053
4.25916
4.17261
2.92956
4.82975
4.87411
4.92236
4.97541
5.02825
5.07347
5.09409
5.05653
4.91613
4.71083
4.45155
2.85392
6.11144
6.12981
6.1428
6.15118
6.15079
6.13089
6.08174
5.97746
5.77228
5.45794
5.09823
3.3322
7.26921
7.27338
7.26946
7.25783
7.23526
7.19234
7.12032
6.99991
6.79117
6.46556
6.08914
4.33156
8.3033
8.29572
8.28368
8.26734
8.24455
8.20998
8.15524
8.06418
7.90887
7.65414
7.35902
5.82133
9.22825
9.21436
9.20192
9.19171
9.18312
9.17486
9.16245
9.13641
9.08308
8.97583
8.87503
7.75834
10.051
10.0365
10.0289
10.0297
10.0407
10.0656
10.1055
10.1601
10.2314
10.3161
10.5
10.0423
10.7772
10.7679
10.7686
10.7817
10.8114
10.8661
10.955
11.0896
11.286
11.5765
12.1694
12.5698
11.4132
11.4154
11.427
11.4514
11.4945
11.5679
11.6889
11.8828
12.1747
12.6455
13.7109
15.2393
11.9707
11.9922
12.0171
12.0498
12.0974
12.1741
12.3008
12.5127
12.8313
13.3727
14.5908
17.1461
13.3306
13.4542
13.2788
13.0872
12.9298
12.7591
12.5946
12.4582
12.3686
12.3288
12.3448
12.388
13.4518
13.2222
13.1611
13.0428
12.9115
12.7705
12.6421
12.5461
12.5078
12.533
12.63
12.7489
13.4237
13.2349
13.1178
12.9639
12.8118
12.6706
12.5616
12.5072
12.5325
12.6432
12.8456
13.064
13.3409
13.1372
12.954
12.7616
12.5847
12.4374
12.3444
12.3369
12.4437
12.674
13.0344
13.4197
12.4592
12.5096
12.5509
12.5888
12.6317
12.6967
12.8031
12.9907
13.2564
13.6589
14.1163
15.3306
12.8969
12.983
13.0437
13.0837
13.112
13.1486
13.2114
13.344
13.5346
13.8295
14.0152
14.3201
13.3162
13.4328
13.5055
13.5398
13.5485
13.5402
13.5387
13.5884
13.6791
13.8572
13.9183
13.934
13.8216
13.9992
14.0862
14.0758
14.0276
13.9549
13.8604
13.7815
13.7145
13.7271
13.6748
13.6496
13.3302
13.4517
13.2763
13.0857
12.929
12.7588
12.5947
12.4584
12.3689
12.3291
12.3453
12.3885
13.4522
13.2208
13.1598
13.0418
12.911
12.7703
12.6421
12.5463
12.508
12.5333
12.6304
12.7494
13.4247
13.2347
13.117
12.9634
12.8116
12.6704
12.5614
12.5071
12.5324
12.6433
12.8459
13.0645
13.3417
13.1378
12.9542
12.7617
12.5846
12.437
12.3439
12.3363
12.4432
12.6737
13.0345
13.42
12.4598
12.5102
12.5515
12.5893
12.6321
12.6969
12.8031
12.9903
13.2554
13.6573
14.1143
15.329
12.8975
12.9836
13.0443
13.0843
13.1126
13.1491
13.2117
13.344
13.5342
13.8287
14.0138
14.3193
13.3167
13.4334
13.5062
13.5405
13.5492
13.5409
13.5392
13.5889
13.6794
13.8572
13.918
13.9337
13.822
13.9996
14.0867
14.0763
14.0281
13.9556
13.8611
13.7824
13.7155
13.728
13.6756
13.6501
13.33
13.4523
13.277
13.0862
12.9293
12.7589
12.5947
12.4582
12.3686
12.3286
12.3445
12.3876
13.4523
13.2216
13.1605
13.0426
12.9116
12.7707
12.6424
12.5464
12.5079
12.533
12.6298
12.7485
13.4249
13.2353
13.1178
12.9642
12.8123
12.671
12.5621
12.5076
12.5327
12.6433
12.8454
13.0637
13.3423
13.1385
12.955
12.7625
12.5855
12.438
12.3449
12.3373
12.444
12.6741
13.0342
13.4192
12.4586
12.509
12.5502
12.5881
12.6309
12.6957
12.802
12.9893
13.2547
13.6569
14.1143
15.3296
12.8963
12.9824
13.0431
13.083
13.1113
13.1478
13.2105
13.3429
13.5333
13.828
14.0135
14.319
13.3156
13.4323
13.505
13.5393
13.5479
13.5396
13.538
13.5877
13.6783
13.8562
13.9171
13.9329
13.8208
13.9985
14.0856
14.0752
14.0271
13.9545
13.86
13.7812
13.7142
13.7267
13.6742
13.6488
13.3297
13.4512
13.2757
13.0851
12.9283
12.758
12.5938
12.4574
12.3678
12.3279
12.3439
12.3871
13.4515
13.2203
13.1592
13.0412
12.9103
12.7695
12.6412
12.5453
12.5069
12.5321
12.6291
12.748
13.4239
13.234
13.1163
12.9626
12.8107
12.6696
12.5607
12.5063
12.5316
12.6423
12.8447
13.0631
13.3409
13.137
12.9534
12.7608
12.5838
12.4363
12.3433
12.3358
12.4427
12.6731
13.0334
13.4186
12.4582
12.5086
12.5499
12.5878
12.6305
12.6953
12.8016
12.989
13.2544
13.6567
14.1139
15.3282
12.896
12.982
13.0428
13.0827
13.1109
13.1474
13.2101
13.3425
13.533
13.8278
14.0134
14.3181
13.3152
13.4319
13.5047
13.5389
13.5474
13.5391
13.5374
13.5871
13.6777
13.8559
13.917
13.9325
13.8206
13.9983
14.0853
14.0748
14.0265
13.9538
13.8591
13.7803
13.7134
13.7259
13.6738
13.6489
13.3557
13.1738
12.9865
12.7988
12.6246
12.4792
12.3873
12.3789
12.4826
12.7241
13.0594
13.4431
13.4503
13.2943
13.134
12.9745
12.8245
12.696
12.607
12.5799
12.6463
12.8262
13.0522
13.317
13.5204
13.3853
13.2475
13.1107
12.9813
12.8679
12.7818
12.7464
12.792
12.8847
13.0507
13.2488
13.5814
13.464
13.3448
13.2259
13.1115
13.0061
12.918
12.876
12.864
12.9129
13.063
13.1369
13.9214
14.1062
14.2362
14.2534
14.2214
14.1479
14.0412
13.9258
13.8034
13.724
13.612
13.5479
13.8328
13.9996
14.1344
14.1634
14.1547
14.1109
14.0435
13.9682
13.8829
13.812
13.7084
13.6166
13.85
13.9797
14.1081
14.1413
14.1411
14.1123
14.0612
14.0004
13.9272
13.8555
13.7585
13.6624
14.0196
14.0463
14.1215
14.1482
14.1478
14.124
14.0813
14.0266
13.9588
13.8867
13.7957
13.7027
13.3563
13.1746
12.9871
12.7991
12.6246
12.4789
12.3868
12.3783
12.4821
12.7238
13.0593
13.4434
13.4509
13.295
13.1345
12.9749
12.8247
12.696
12.6068
12.5796
12.646
12.8261
13.0524
13.3174
13.521
13.3861
13.2481
13.1113
12.9817
12.8681
12.7819
12.7464
12.7921
12.8849
13.0511
13.2493
13.5819
13.4648
13.3454
13.2266
13.1121
13.0065
12.9184
12.8762
12.8643
12.9134
13.0637
13.1375
13.9219
14.1067
14.2369
14.2542
14.2222
14.1488
14.0421
13.9268
13.8045
13.7253
13.6131
13.5489
13.8333
14.0001
14.1351
14.1642
14.1555
14.1117
14.0444
13.9691
13.884
13.8131
13.7095
13.6175
13.8506
13.9803
14.1088
14.142
14.1419
14.1131
14.062
14.0013
13.9282
13.8566
13.7595
13.6634
14.0206
14.047
14.1223
14.1489
14.1486
14.1249
14.0821
14.0275
13.9597
13.8876
13.7967
13.7035
13.3571
13.1754
12.9878
12.8
12.6256
12.48
12.388
12.3795
12.4831
12.7244
13.0593
13.4429
13.4517
13.2959
13.1354
12.9759
12.8257
12.6971
12.608
12.5808
12.647
12.8267
13.0526
13.3171
13.5218
13.3869
13.2489
13.1122
12.9826
12.8692
12.7829
12.7474
12.7929
12.8854
13.0513
13.2493
13.5827
13.4657
13.3463
13.2274
13.1129
13.0075
12.9193
12.8771
12.865
12.9139
13.064
13.1377
13.9208
14.1056
14.2357
14.253
14.221
14.1476
14.0409
13.9256
13.8032
13.7238
13.6116
13.5474
13.8324
13.999
14.1339
14.1629
14.1543
14.1105
14.0432
13.9679
13.8826
13.8117
13.708
13.6161
13.8497
13.9792
14.1075
14.1408
14.1407
14.1119
14.0608
14.0001
13.927
13.8552
13.7582
13.662
14.0195
14.0458
14.121
14.1477
14.1473
14.1236
14.0809
14.0263
13.9585
13.8864
13.7953
13.7022
13.3557
13.1739
12.9863
12.7983
12.6238
12.4782
12.3863
12.3779
12.4817
12.7233
13.0584
13.4422
13.4503
13.2944
13.1338
12.9742
12.824
12.6954
12.6063
12.5792
12.6457
12.8255
13.0516
13.3164
13.5204
13.3855
13.2475
13.1106
12.981
12.8675
12.7813
12.7459
12.7915
12.8843
13.0504
13.2484
13.5814
13.4643
13.3448
13.2259
13.1113
13.0059
12.9177
12.8756
12.8637
12.9129
13.063
13.1367
13.9205
14.1053
14.2353
14.2524
14.2204
14.1469
14.0401
13.9246
13.8022
13.723
13.6109
13.5474
13.8319
13.9986
14.1334
14.1624
14.1536
14.1097
14.0423
13.9669
13.8817
13.8108
13.7072
13.6159
13.849
13.9787
14.107
14.1402
14.14
14.1111
14.0599
13.9991
13.9259
13.8543
13.7572
13.6618
14.0185
14.0453
14.1205
14.1471
14.1466
14.1228
14.08
14.0252
13.9574
13.8853
13.7942
13.702
13.6368
13.5343
13.4306
13.3256
13.2213
13.1174
13.0204
12.9415
12.8855
12.8982
13.0149
12.8398
13.686
13.5951
13.5032
13.4075
13.3073
13.1966
13.0826
12.9564
12.868
12.8277
12.9333
12.8908
13.728
13.6458
13.5617
13.4708
13.3693
13.2482
13.1035
12.942
12.8219
12.7677
12.8466
12.8714
13.7633
13.687
13.6072
13.5176
13.4103
13.274
13.0997
12.9136
12.7726
12.7216
12.7824
12.8472
13.792
13.7196
13.6416
13.5507
13.4347
13.2819
13.0884
12.8841
12.7347
12.686
12.7441
12.838
13.8153
13.7454
13.6677
13.5741
13.4492
13.2828
13.0767
12.8636
12.7147
12.6736
12.7422
12.8467
13.8341
13.766
13.688
13.5915
13.4596
13.2837
13.0706
12.8558
12.7131
12.6822
12.7639
12.8748
13.8498
13.7835
13.7055
13.6069
13.4706
13.2892
13.0732
12.8606
12.7264
12.7055
12.8003
12.9167
13.8635
13.7998
13.7229
13.6241
13.486
13.3026
13.086
12.8766
12.7501
12.7367
12.8413
12.9636
13.8779
13.819
13.7464
13.6506
13.5142
13.3311
13.1136
12.9035
12.7802
12.7673
12.8769
13.0088
13.8951
13.8454
13.7832
13.6963
13.5665
13.3854
13.1642
12.9453
12.8145
12.7917
12.9052
13.0452
13.9088
13.8667
13.8128
13.736
13.6175
13.4442
13.2246
13.0048
12.8468
12.8165
12.9278
13.0534
14.4391
14.21
14.1614
14.1655
14.1595
14.1369
14.0985
14.0478
13.9842
13.9139
13.8295
13.7421
14.4267
14.2738
14.191
14.1827
14.1716
14.1494
14.1136
14.0657
14.0057
13.9384
13.86
13.7787
14.387
14.2715
14.2087
14.1954
14.1827
14.1611
14.1271
14.0813
14.0243
13.9599
13.887
13.8114
14.3473
14.2573
14.218
14.2042
14.1924
14.1717
14.139
14.0949
14.0402
13.9786
13.9103
13.8396
14.3128
14.2433
14.2221
14.2101
14.2004
14.1808
14.1492
14.1063
14.0536
13.9945
13.93
13.8633
14.2864
14.2326
14.2237
14.2141
14.2066
14.1882
14.1575
14.1156
14.0645
14.0076
13.9463
13.8829
14.2703
14.2263
14.2243
14.2167
14.211
14.1936
14.1635
14.1223
14.0726
14.0178
13.9594
13.8989
14.2636
14.2257
14.2246
14.218
14.2133
14.1966
14.1669
14.1264
14.078
14.0253
13.9697
13.9119
14.2643
14.2312
14.2251
14.2176
14.2127
14.1965
14.1672
14.1273
14.0804
14.0299
13.9776
13.9228
14.2697
14.2414
14.2254
14.2138
14.2073
14.1913
14.1621
14.1235
14.0785
14.0313
13.983
13.9326
14.2782
14.2534
14.2257
14.2066
14.1966
14.1792
14.1501
14.1137
14.0719
14.0289
13.9861
13.9422
14.289
14.263
14.2264
14.202
14.1875
14.1676
14.1394
14.105
14.0658
14.0259
13.9869
13.9488
13.6374
13.5353
13.4315
13.3265
13.2221
13.1181
13.021
12.9419
12.8861
12.8989
13.0157
12.8403
13.6866
13.5962
13.5041
13.4084
13.3081
13.1974
13.0833
12.957
12.8687
12.8285
12.9341
12.8915
13.7288
13.647
13.5628
13.4718
13.3703
13.2491
13.1042
12.9427
12.8226
12.7684
12.8474
12.8721
13.7641
13.6882
13.6082
13.5186
13.4113
13.2749
13.1005
12.9142
12.7733
12.7223
12.7832
12.848
13.793
13.7209
13.6428
13.5518
13.4356
13.2827
13.0891
12.8847
12.7353
12.6867
12.7449
12.8388
13.8163
13.7467
13.6688
13.5751
13.4502
13.2836
13.0774
12.8642
12.7154
12.6743
12.743
12.8475
13.8352
13.7674
13.6892
13.5926
13.4605
13.2845
13.0712
12.8564
12.7137
12.6829
12.7647
12.8757
13.8509
13.7848
13.7066
13.6079
13.4714
13.2899
13.0738
12.8612
12.727
12.7063
12.8011
12.9175
13.8648
13.8011
13.7241
13.6251
13.4869
13.3033
13.0866
12.8771
12.7508
12.7375
12.8421
12.9645
13.8791
13.8202
13.7475
13.6516
13.5151
13.3318
13.1142
12.9041
12.7808
12.7681
12.8778
13.0096
13.8963
13.8466
13.7842
13.6973
13.5673
13.3861
13.1648
12.9459
12.8152
12.7925
12.9061
13.046
13.9099
13.8678
13.8139
13.737
13.6183
13.4449
13.2252
13.0054
12.8475
12.8173
12.9286
13.0542
14.4407
14.2109
14.1622
14.1663
14.1603
14.1377
14.0993
14.0486
13.9851
13.9149
13.8303
13.7429
14.4282
14.2749
14.1919
14.1835
14.1724
14.1502
14.1144
14.0665
14.0065
13.9392
13.8608
13.7794
14.3883
14.2726
14.2096
14.1962
14.1835
14.1619
14.1279
14.082
14.025
13.9606
13.8876
13.812
14.3485
14.2583
14.2188
14.205
14.1931
14.1724
14.1398
14.0956
14.0409
13.9793
13.9109
13.8401
14.3138
14.2442
14.223
14.2109
14.2011
14.1815
14.1499
14.107
14.0542
13.9951
13.9305
13.8638
14.2874
14.2335
14.2246
14.2149
14.2074
14.1889
14.1582
14.1162
14.065
14.0081
13.9468
13.8833
14.2712
14.2272
14.2251
14.2174
14.2117
14.1942
14.1641
14.1229
14.0732
14.0183
13.9599
13.8993
14.2646
14.2266
14.2255
14.2188
14.214
14.1972
14.1675
14.127
14.0785
14.0257
13.9701
13.9123
14.2653
14.2321
14.2259
14.2183
14.2134
14.1972
14.1678
14.1279
14.0809
14.0303
13.9779
13.9231
14.2708
14.2423
14.2262
14.2145
14.208
14.1919
14.1627
14.124
14.0789
14.0317
13.9834
13.9329
14.2793
14.2543
14.2266
14.2074
14.1972
14.1798
14.1507
14.1141
14.0723
14.0292
13.9865
13.9425
14.2901
14.2641
14.2273
14.2027
14.1881
14.1682
14.1399
14.1055
14.0662
14.0262
13.9872
13.9491
13.6382
13.536
13.4322
13.3272
13.2228
13.1188
13.0217
12.9426
12.8867
12.8993
13.0159
12.8408
13.6873
13.5968
13.5048
13.4091
13.3088
13.198
13.0839
12.9576
12.8692
12.8288
12.9343
12.8918
13.7294
13.6476
13.5633
13.4723
13.3708
13.2496
13.1047
12.9432
12.8231
12.7687
12.8476
12.8725
13.7646
13.6887
13.6087
13.5191
13.4117
13.2753
13.101
12.9147
12.7738
12.7227
12.7834
12.8483
13.7934
13.7213
13.6431
13.5522
13.436
13.2831
13.0896
12.8852
12.7358
12.6871
12.7452
12.8391
13.8167
13.747
13.6691
13.5754
13.4505
13.2839
13.0779
12.8647
12.7159
12.6747
12.7433
12.8478
13.8356
13.7677
13.6895
13.5928
13.4609
13.2848
13.0717
12.8569
12.7143
12.6833
12.7651
12.876
13.8512
13.7851
13.7069
13.6081
13.4717
13.2902
13.0743
12.8617
12.7276
12.7067
12.8015
12.9179
13.8651
13.8013
13.7243
13.6252
13.4872
13.3035
13.0872
12.8776
12.7514
12.7379
12.8425
12.9648
13.8793
13.8204
13.7477
13.6517
13.5154
13.3321
13.1147
12.9046
12.7814
12.7685
12.8781
13.01
13.8966
13.8468
13.7844
13.6974
13.5675
13.3863
13.1652
12.9464
12.8157
12.7929
12.9064
13.0464
13.9101
13.868
13.814
13.7371
13.6185
13.4451
13.2257
13.0059
12.848
12.8177
12.929
13.0546
14.4391
14.2095
14.1609
14.165
14.1591
14.1365
14.0981
14.0474
13.9839
13.9136
13.8291
13.7416
14.4266
14.2734
14.1905
14.1821
14.1711
14.149
14.1132
14.0653
14.0053
13.938
13.8596
13.7782
14.3867
14.271
14.2082
14.1949
14.1822
14.1607
14.1267
14.0809
14.0239
13.9595
13.8865
13.8109
14.3469
14.2568
14.2174
14.2036
14.1919
14.1712
14.1386
14.0944
14.0398
13.9782
13.9098
13.8391
14.3123
14.2427
14.2216
14.2095
14.1998
14.1803
14.1488
14.1059
14.0532
13.9941
13.9295
13.8628
14.2859
14.232
14.2232
14.2135
14.2061
14.1877
14.157
14.1151
14.064
14.0071
13.9458
13.8823
14.2698
14.2257
14.2237
14.2161
14.2105
14.193
14.163
14.1218
14.0721
14.0173
13.9589
13.8983
14.2632
14.2252
14.2241
14.2175
14.2127
14.196
14.1664
14.1259
14.0775
14.0248
13.9692
13.9113
14.2639
14.2307
14.2245
14.217
14.2121
14.196
14.1666
14.1268
14.0798
14.0294
13.977
13.9222
14.2693
14.2409
14.2248
14.2132
14.2067
14.1907
14.1616
14.123
14.078
14.0307
13.9824
13.9319
14.2779
14.2529
14.2252
14.2061
14.196
14.1787
14.1496
14.1131
14.0714
14.0283
13.9855
13.9415
14.2886
14.2626
14.2259
14.2015
14.1869
14.167
14.1388
14.1045
14.0652
14.0253
13.9863
13.9481
13.6369
13.5347
13.4309
13.3258
13.2213
13.1173
13.0202
12.9412
12.8855
12.8984
13.015
12.8399
13.686
13.5956
13.5035
13.4077
13.3074
13.1966
13.0825
12.9563
12.8681
12.8279
12.9335
12.8909
13.7283
13.6464
13.5621
13.4711
13.3695
13.2482
13.1034
12.942
12.822
12.7679
12.8469
12.8716
13.7635
13.6876
13.6075
13.5179
13.4104
13.274
13.0996
12.9135
12.7727
12.7219
12.7827
12.8475
13.7924
13.7203
13.642
13.551
13.4348
13.2818
13.0882
12.884
12.7348
12.6864
12.7445
12.8383
13.8157
13.746
13.668
13.5743
13.4492
13.2827
13.0765
12.8636
12.7149
12.674
12.7426
12.847
13.8346
13.7667
13.6884
13.5917
13.4596
13.2836
13.0704
12.8558
12.7133
12.6826
12.7644
12.8752
13.8503
13.7841
13.7058
13.607
13.4705
13.289
13.0729
12.8606
12.7266
12.7059
12.8007
12.917
13.8641
13.8003
13.7232
13.6242
13.4859
13.3024
13.0857
12.8765
12.7503
12.7371
12.8417
12.9639
13.8784
13.8194
13.7467
13.6506
13.5141
13.3308
13.1133
12.9034
12.7803
12.7677
12.8773
13.0091
13.8956
13.8458
13.7833
13.6963
13.5662
13.385
13.1638
12.9452
12.8146
12.7921
12.9056
13.0454
13.9092
13.867
13.8129
13.7359
13.6171
13.4437
13.2242
13.0046
12.8469
12.8168
12.9281
13.0536
14.4378
14.2089
14.1603
14.1644
14.1583
14.1356
14.0972
14.0463
13.9827
13.9125
13.8278
13.7413
14.4254
14.2727
14.1899
14.1815
14.1703
14.1481
14.1122
14.0642
14.0041
13.9367
13.8582
13.7778
14.3857
14.2704
14.2075
14.1942
14.1815
14.1598
14.1257
14.0797
14.0226
13.9582
13.885
13.8104
14.346
14.2561
14.2167
14.2029
14.1911
14.1703
14.1376
14.0933
14.0385
13.9768
13.9083
13.8384
14.3115
14.2421
14.2209
14.2088
14.1991
14.1794
14.1478
14.1047
14.0519
13.9927
13.9279
13.8621
14.2851
14.2313
14.2225
14.2128
14.2053
14.1868
14.156
14.1139
14.0627
14.0058
13.9443
13.8816
14.269
14.225
14.223
14.2154
14.2097
14.1922
14.162
14.1207
14.0709
14.016
13.9574
13.8975
14.2623
14.2244
14.2233
14.2167
14.2119
14.1952
14.1654
14.1248
14.0763
14.0235
13.9678
13.9105
14.263
14.2298
14.2237
14.2163
14.2114
14.1951
14.1657
14.1257
14.0787
14.0281
13.9756
13.9213
14.2684
14.24
14.224
14.2124
14.2059
14.1899
14.1607
14.1219
14.0768
14.0295
13.9812
13.9311
14.2769
14.252
14.2243
14.2053
14.1952
14.1778
14.1486
14.1121
14.0702
14.0271
13.9844
13.9408
14.2876
14.2617
14.225
14.2006
14.186
14.1661
14.1378
14.1034
14.0641
14.0241
13.9853
13.9475
)
;

boundaryField
{
    rotor
    {
        type            zeroGradient;
    }
    stator
    {
        type            zeroGradient;
    }
    front
    {
        type            empty;
    }
    back
    {
        type            empty;
    }
}


// ************************************************************************* //
