/*--------------------------------*- C++ -*----------------------------------*\
| =========                 |                                                 |
| \\      /  F ield         | OpenFOAM: The Open Source CFD Toolbox           |
|  \\    /   O peration     | Version:  v1912                                 |
|   \\  /    A nd           | Website:  www.openfoam.com                      |
|    \\/     M anipulation  |                                                 |
\*---------------------------------------------------------------------------*/
FoamFile
{
    version     2.0;
    format      ascii;
    class       surfaceScalarField;
    location    "200";
    object      phi;
}
// * * * * * * * * * * * * * * * * * * * * * * * * * * * * * * * * * * * * * //

dimensions      [0 3 -1 0 0 0 0];
oriented        oriented;


internalField   nonuniform List<scalar> 
5952
(
6.12192e-06
-6.13221e-06
1.04736e-05
-4.35017e-06
1.34203e-05
-2.94649e-06
1.3311e-05
1.12475e-07
8.78986e-06
4.52029e-06
-1.39949e-07
8.93234e-06
-1.79159e-05
1.77745e-05
-3.68959e-05
1.89809e-05
-5.12564e-05
1.43594e-05
-6.28406e-05
1.15843e-05
-7.1454e-05
8.61251e-06
6.16386e-06
-7.76183e-05
2.70269e-06
-8.8342e-06
3.14515e-06
-4.79116e-06
-6.70401e-07
8.69662e-07
-9.87095e-06
9.31413e-06
-2.40924e-05
1.87419e-05
-3.9177e-05
2.40174e-05
-4.67533e-05
2.53506e-05
-5.07065e-05
2.29345e-05
-5.50098e-05
1.86624e-05
-5.87327e-05
1.53071e-05
-6.16549e-05
1.15342e-05
8.20226e-06
-6.36936e-05
-8.30513e-07
-8.00288e-06
-4.72004e-06
-9.00704e-07
-1.31764e-05
9.32636e-06
-2.40737e-05
2.0212e-05
-3.2664e-05
2.73322e-05
-3.78938e-05
2.92477e-05
-4.06235e-05
2.80803e-05
-4.2511e-05
2.48222e-05
-4.46036e-05
2.07549e-05
-4.62009e-05
1.69044e-05
-4.76411e-05
1.29741e-05
9.35201e-06
-4.87911e-05
-4.54992e-06
-3.45185e-06
-1.08898e-05
5.43999e-06
-1.79516e-05
1.63885e-05
-2.41273e-05
2.63883e-05
-2.80234e-05
3.12285e-05
-3.02984e-05
3.1523e-05
-3.1558e-05
2.934e-05
-3.23783e-05
2.56426e-05
-3.31667e-05
2.15433e-05
-3.38753e-05
1.76128e-05
-3.4664e-05
1.37626e-05
1.00631e-05
-3.53754e-05
-5.51932e-06
2.0693e-06
-1.09861e-05
1.09078e-05
-1.55898e-05
2.09927e-05
-1.86645e-05
2.94637e-05
-2.02911e-05
3.28553e-05
-2.08813e-05
3.21137e-05
-2.08019e-05
2.92605e-05
-2.07702e-05
2.56111e-05
-2.09638e-05
2.17367e-05
-2.12952e-05
1.79442e-05
-2.17405e-05
1.42076e-05
1.05296e-05
-2.22071e-05
-4.84893e-06
6.92015e-06
-8.76099e-06
1.48208e-05
-1.12416e-05
2.34743e-05
-1.20661e-05
3.02888e-05
-1.17679e-05
3.25579e-05
-1.08307e-05
3.11766e-05
-9.91568e-06
2.83459e-05
-9.27464e-06
2.49697e-05
-8.97104e-06
2.14332e-05
-8.9371e-06
1.79098e-05
-9.11143e-06
1.43818e-05
1.08259e-05
-9.40828e-06
-3.7202e-06
1.0642e-05
-6.25877e-06
1.7361e-05
-6.7901e-06
2.40064e-05
-5.54883e-06
2.9049e-05
-3.36764e-06
3.03772e-05
-1.17223e-06
2.89821e-05
6.47519e-07
2.6526e-05
1.96434e-06
2.36533e-05
2.78293e-06
2.06142e-05
3.18951e-06
1.75032e-05
3.27141e-06
1.42994e-05
1.09726e-05
3.12455e-06
-3.44426e-06
1.40883e-05
-4.70719e-06
1.86254e-05
-3.36578e-06
2.26667e-05
5.41433e-08
2.56303e-05
4.1073e-06
2.63252e-05
7.73682e-06
2.53532e-05
1.06355e-05
2.36278e-05
1.27584e-05
2.15304e-05
1.41707e-05
1.92019e-05
1.49941e-05
1.66796e-05
1.53545e-05
1.39387e-05
1.09553e-05
1.53714e-05
-3.38891e-06
1.74807e-05
-3.64577e-06
1.88843e-05
-2.6647e-07
1.92892e-05
5.13828e-06
2.0227e-05
1.09161e-05
2.05487e-05
1.60021e-05
2.02681e-05
2.00663e-05
1.95643e-05
2.30872e-05
1.85098e-05
2.51663e-05
1.7123e-05
2.64568e-05
1.53891e-05
2.71295e-05
1.32659e-05
1.07477e-05
2.73369e-05
-4.57386e-06
2.20547e-05
-1.66434e-06
1.5976e-05
4.76778e-06
1.28581e-05
1.20034e-05
1.29925e-05
1.90203e-05
1.35327e-05
2.5093e-05
1.41962e-05
2.9972e-05
1.46857e-05
3.36516e-05
1.48305e-05
3.62391e-05
1.45355e-05
3.78908e-05
1.37373e-05
3.88036e-05
1.23528e-05
1.03967e-05
3.91545e-05
3.80549e-07
2.16757e-05
8.47416e-06
7.88292e-06
1.71775e-05
4.15549e-06
2.51833e-05
4.98761e-06
3.21497e-05
6.56716e-06
3.79716e-05
8.37504e-06
4.26165e-05
1.00413e-05
4.61194e-05
1.1328e-05
4.85807e-05
1.20744e-05
5.01227e-05
1.21954e-05
5.09381e-05
1.15372e-05
1.0145e-05
5.11896e-05
2.606e-05
-4.38501e-06
3.6447e-05
-2.5045e-06
4.30307e-05
-2.42834e-06
4.8553e-05
-5.34717e-07
5.30594e-05
2.06087e-06
5.675e-05
4.68461e-06
5.96752e-05
7.11621e-06
6.1824e-05
9.17921e-06
6.32204e-05
1.0678e-05
6.39122e-05
1.15035e-05
6.40644e-05
1.13849e-05
6.37858e-05
1.04232e-05
-8.14717e-05
3.85276e-06
-8.32318e-05
1.75936e-06
-8.30124e-05
-2.20068e-07
-8.09936e-05
-2.01959e-06
-7.71894e-05
-3.80491e-06
-7.14683e-05
-5.72188e-06
-6.37195e-05
-7.74954e-06
-5.37569e-05
-9.96335e-06
-4.14034e-05
-1.23542e-05
-2.67313e-05
-1.4673e-05
-1.10995e-05
-1.56339e-05
-1.11003e-05
-6.49299e-05
5.0885e-06
-6.53965e-05
2.22542e-06
-6.51279e-05
-4.89294e-07
-6.4011e-05
-3.13723e-06
-6.18802e-05
-5.93654e-06
-5.86333e-05
-8.96955e-06
-5.40766e-05
-1.23071e-05
-4.80202e-05
-1.60207e-05
-4.02004e-05
-2.0175e-05
-3.02827e-05
-2.45917e-05
-1.77464e-05
-2.81716e-05
-2.88471e-05
-4.96406e-05
5.9376e-06
-5.00835e-05
2.66783e-06
-4.99884e-05
-5.84939e-07
-4.91899e-05
-3.93626e-06
-4.76235e-05
-7.50364e-06
-4.52066e-05
-1.13871e-05
-4.18355e-05
-1.56791e-05
-3.73869e-05
-2.04702e-05
-3.17274e-05
-2.58354e-05
-2.43852e-05
-3.19347e-05
-1.44561e-05
-3.81017e-05
-4.33035e-05
-3.59083e-05
6.47021e-06
-3.61518e-05
2.91099e-06
-3.6014e-05
-7.23072e-07
-3.54219e-05
-4.52881e-06
-3.43249e-05
-8.60108e-06
-3.26631e-05
-1.30495e-05
-3.03759e-05
-1.79669e-05
-2.74061e-05
-2.34409e-05
-2.3564e-05
-2.96782e-05
-1.85194e-05
-3.69799e-05
-1.13597e-05
-4.5262e-05
-5.46637e-05
-2.26056e-05
6.86841e-06
-2.28502e-05
3.15543e-06
-2.28756e-05
-6.98019e-07
-2.26341e-05
-4.77076e-06
-2.20898e-05
-9.14579e-06
-2.12033e-05
-1.39366e-05
-1.99401e-05
-1.92307e-05
-1.82343e-05
-2.51472e-05
-1.59533e-05
-3.196e-05
-1.29185e-05
-4.00156e-05
-8.05105e-06
-5.01309e-05
-6.27153e-05
-9.742e-06
7.20194e-06
-1.0041e-05
3.45391e-06
-1.02549e-05
-4.84511e-07
-1.03519e-05
-4.67444e-06
-1.03141e-05
-9.1842e-06
-1.01451e-05
-1.41065e-05
-9.83128e-06
-1.95453e-05
-9.33288e-06
-2.56467e-05
-8.61755e-06
-3.26768e-05
-7.54048e-06
-4.10939e-05
-5.40604e-06
-5.22667e-05
-6.81226e-05
2.83844e-06
7.48745e-06
2.48207e-06
3.80983e-06
2.0963e-06
-9.952e-08
1.69743e-06
-4.27636e-06
1.2778e-06
-8.76569e-06
8.14323e-07
-1.3644e-05
2.87346e-07
-1.90197e-05
-3.13071e-07
-2.50477e-05
-9.87393e-07
-3.20032e-05
-1.67955e-06
-4.0404e-05
-2.15292e-06
-5.17958e-05
-7.02762e-05
1.51524e-05
7.70615e-06
1.47727e-05
4.18896e-06
1.42717e-05
4.00787e-07
1.3654e-05
-3.6596e-06
1.28895e-05
-8.00212e-06
1.19236e-05
-1.26795e-05
1.06873e-05
-1.77844e-05
9.1016e-06
-2.34629e-05
7.07302e-06
-2.99766e-05
4.53223e-06
-3.7864e-05
1.63519e-06
-4.89002e-05
-6.86426e-05
2.72181e-05
7.82459e-06
2.68643e-05
4.54221e-06
2.63217e-05
9.42721e-07
2.55915e-05
-2.93031e-06
2.4628e-05
-7.03973e-06
2.3348e-05
-1.14004e-05
2.16294e-05
-1.60668e-05
1.93199e-05
-2.11545e-05
1.61963e-05
-2.68531e-05
1.19845e-05
-3.36539e-05
6.53671e-06
-4.34548e-05
-6.21062e-05
3.91226e-05
7.85603e-06
3.88149e-05
4.84944e-06
3.82868e-05
1.47012e-06
3.75437e-05
-2.18802e-06
3.65358e-05
-6.03275e-06
3.51624e-05
-1.00278e-05
3.32566e-05
-1.41617e-05
3.05963e-05
-1.84944e-05
2.67879e-05
-2.30458e-05
2.13165e-05
-2.81829e-05
1.32256e-05
-3.53643e-05
-4.88815e-05
5.10907e-05
7.95451e-06
5.07496e-05
5.18988e-06
5.02242e-05
1.9948e-06
4.95251e-05
-1.4899e-06
4.86079e-05
-5.11632e-06
4.7373e-05
-8.79357e-06
4.56383e-05
-1.24275e-05
4.31368e-05
-1.59933e-05
3.93072e-05
-1.9216e-05
3.33437e-05
-2.22199e-05
2.2557e-05
-2.45782e-05
-2.63236e-05
6.33243e-05
8.41571e-06
6.27634e-05
5.75026e-06
6.21535e-05
2.60416e-06
6.15095e-05
-8.4651e-07
6.07953e-05
-4.40251e-06
5.99257e-05
-7.9243e-06
5.87444e-05
-1.12464e-05
5.70107e-05
-1.42595e-05
5.41646e-05
-1.637e-05
4.90621e-05
-1.71171e-05
3.75648e-05
-1.30802e-05
1.12407e-05
6.13287e-06
-6.13095e-06
1.04659e-05
-4.33177e-06
1.34101e-05
-2.94413e-06
1.33316e-05
8.01387e-08
8.86348e-06
4.46718e-06
-2.13282e-09
8.86714e-06
-1.76951e-05
1.76921e-05
-3.67057e-05
1.90115e-05
-5.10952e-05
1.43889e-05
-6.27024e-05
1.16077e-05
-7.13353e-05
8.6324e-06
6.18093e-06
-7.75162e-05
2.70995e-06
-8.83938e-06
3.20607e-06
-4.82601e-06
-5.47493e-07
8.10152e-07
-9.65544e-06
9.1888e-06
-2.38443e-05
1.8656e-05
-3.89787e-05
2.4002e-05
-4.66501e-05
2.53634e-05
-5.06146e-05
2.29765e-05
-5.49231e-05
1.86973e-05
-5.86526e-05
1.53374e-05
-6.15818e-05
1.15615e-05
8.22452e-06
-6.36254e-05
-7.79615e-07
-8.05767e-06
-4.60025e-06
-1.0036e-06
-1.29918e-05
9.20249e-06
-2.39195e-05
2.01172e-05
-3.25709e-05
2.73077e-05
-3.78259e-05
2.92575e-05
-4.05714e-05
2.8109e-05
-4.24563e-05
2.48618e-05
-4.45492e-05
2.07902e-05
-4.61488e-05
1.69373e-05
-4.75897e-05
1.30023e-05
9.37507e-06
-4.87403e-05
-4.50991e-06
-3.54481e-06
-1.0814e-05
5.30242e-06
-1.7878e-05
1.62673e-05
-2.40812e-05
2.63214e-05
-2.7988e-05
3.12149e-05
-3.0269e-05
3.15392e-05
-3.15324e-05
2.93726e-05
-3.2351e-05
2.56809e-05
-3.31379e-05
2.15769e-05
-3.38425e-05
1.76421e-05
-3.46277e-05
1.37873e-05
1.00845e-05
-3.53371e-05
-5.48042e-06
1.93937e-06
-1.09483e-05
1.07717e-05
-1.55608e-05
2.08813e-05
-1.8657e-05
2.94183e-05
-2.02905e-05
3.28498e-05
-2.08852e-05
3.21341e-05
-2.08008e-05
2.92893e-05
-2.07609e-05
2.56406e-05
-2.09474e-05
2.17642e-05
-2.1274e-05
1.7968e-05
-2.17151e-05
1.42288e-05
1.05484e-05
-2.21796e-05
-4.85171e-06
6.79291e-06
-8.77038e-06
1.46922e-05
-1.12625e-05
2.33742e-05
-1.20897e-05
3.02477e-05
-1.17936e-05
3.25539e-05
-1.08492e-05
3.11918e-05
-9.92686e-06
2.83665e-05
-9.27655e-06
2.49917e-05
-8.96662e-06
2.14534e-05
-8.92659e-06
1.79288e-05
-9.09763e-06
1.43988e-05
1.08424e-05
-9.39134e-06
-3.74194e-06
1.05375e-05
-6.29925e-06
1.72512e-05
-6.84243e-06
2.39192e-05
-5.59632e-06
2.90029e-05
-3.40919e-06
3.03688e-05
-1.20405e-06
2.89874e-05
6.26002e-07
2.65377e-05
1.951e-06
2.36667e-05
2.77696e-06
2.0628e-05
3.18846e-06
1.75169e-05
3.27433e-06
1.4313e-05
1.09863e-05
3.12983e-06
-3.47914e-06
1.40204e-05
-4.76665e-06
1.85411e-05
-3.43818e-06
2.25935e-05
-1.44455e-08
2.55812e-05
4.05181e-06
2.63042e-05
7.69368e-06
2.53469e-05
1.0603e-05
2.36293e-05
1.27346e-05
2.15357e-05
1.41536e-05
1.92091e-05
1.4982e-05
1.66885e-05
1.5346e-05
1.39487e-05
1.09666e-05
1.53654e-05
-3.4286e-06
1.74505e-05
-3.71051e-06
1.88257e-05
-3.43187e-07
1.92269e-05
5.06255e-06
2.01777e-05
1.08506e-05
2.05179e-05
1.59482e-05
2.02508e-05
2.00228e-05
1.95558e-05
2.30522e-05
1.85071e-05
2.51378e-05
1.7124e-05
2.64334e-05
1.5393e-05
2.71098e-05
1.32724e-05
1.07566e-05
2.73196e-05
-4.59688e-06
2.20506e-05
-1.70652e-06
1.5936e-05
4.70886e-06
1.28151e-05
1.19367e-05
1.29509e-05
1.89556e-05
1.35005e-05
2.50344e-05
1.4173e-05
2.99209e-05
1.46703e-05
3.36073e-05
1.48214e-05
3.62007e-05
1.4531e-05
3.78571e-05
1.37366e-05
3.87736e-05
1.23558e-05
1.0403e-05
3.9127e-05
3.78245e-07
2.16731e-05
8.45253e-06
7.86393e-06
1.71373e-05
4.12904e-06
2.51326e-05
4.95713e-06
3.20951e-05
6.53919e-06
3.79177e-05
8.35151e-06
4.25656e-05
1.00232e-05
4.60724e-05
1.13152e-05
4.85376e-05
1.20663e-05
5.00829e-05
1.21915e-05
5.09012e-05
1.15375e-05
1.01491e-05
5.11547e-05
2.60625e-05
-4.38888e-06
3.64376e-05
-2.51241e-06
4.3009e-05
-2.44006e-06
4.85206e-05
-5.54435e-07
5.30203e-05
2.03963e-06
5.67078e-05
4.66436e-06
5.96323e-05
7.09889e-06
6.17817e-05
9.16602e-06
6.31792e-05
1.06689e-05
6.38721e-05
1.14986e-05
6.40254e-05
1.13839e-05
6.37479e-05
1.04264e-05
-8.1383e-05
3.86636e-06
-8.31539e-05
1.77076e-06
-8.29426e-05
-2.11756e-07
-8.09306e-05
-2.01236e-06
-7.71329e-05
-3.79815e-06
-7.14181e-05
-5.7152e-06
-6.36764e-05
-7.74211e-06
-5.37219e-05
-9.95495e-06
-4.13778e-05
-1.23444e-05
-2.67167e-05
-1.46615e-05
-1.10979e-05
-1.56197e-05
-1.10983e-05
-6.4866e-05
5.10676e-06
-6.53357e-05
2.24027e-06
-6.50712e-05
-4.76608e-07
-6.39588e-05
-3.12508e-06
-6.18332e-05
-5.92421e-06
-5.8592e-05
-8.9567e-06
-5.40414e-05
-1.22932e-05
-4.79911e-05
-1.60056e-05
-4.01772e-05
-2.01588e-05
-3.02649e-05
-2.45743e-05
-1.77312e-05
-2.8154e-05
-2.88297e-05
-4.95907e-05
5.95699e-06
-5.00352e-05
2.68471e-06
-4.9943e-05
-5.69044e-07
-4.9148e-05
-3.92033e-06
-4.75856e-05
-7.48697e-06
-4.51733e-05
-1.13693e-05
-4.18069e-05
-1.566e-05
-3.73632e-05
-2.04497e-05
-3.17091e-05
-2.58134e-05
-2.43724e-05
-3.19114e-05
-1.44492e-05
-3.80776e-05
-4.32792e-05
-3.58695e-05
6.48915e-06
-3.61136e-05
2.92871e-06
-3.59774e-05
-7.05514e-07
-3.53875e-05
-4.5104e-06
-3.42935e-05
-8.5813e-06
-3.26352e-05
-1.30279e-05
-3.03519e-05
-1.79436e-05
-2.73865e-05
-2.34155e-05
-2.35492e-05
-2.96511e-05
-1.85094e-05
-3.69517e-05
-1.13536e-05
-4.52338e-05
-5.46332e-05
-2.25766e-05
6.88629e-06
-2.28213e-05
3.17287e-06
-2.28473e-05
-6.79619e-07
-2.26074e-05
-4.75088e-06
-2.20652e-05
-9.12376e-06
-2.11814e-05
-1.39122e-05
-1.99214e-05
-1.92039e-05
-1.82193e-05
-2.51182e-05
-1.59421e-05
-3.19288e-05
-1.29111e-05
-3.99833e-05
-8.0482e-06
-5.00982e-05
-6.26818e-05
-9.72389e-06
7.21796e-06
-1.0022e-05
3.47081e-06
-1.02363e-05
-4.66136e-07
-1.0334e-05
-4.65367e-06
-1.02979e-05
-9.1608e-06
-1.01307e-05
-1.40801e-05
-9.81943e-06
-1.95162e-05
-9.32364e-06
-2.56147e-05
-8.6112e-06
-3.26424e-05
-7.53739e-06
-4.10589e-05
-5.40492e-06
-5.22313e-05
-6.80882e-05
2.8455e-06
7.50195e-06
2.48988e-06
3.82564e-06
2.10439e-06
-8.13948e-08
1.70511e-06
-4.25545e-06
1.28475e-06
-8.74149e-06
8.19953e-07
-1.36166e-05
2.9159e-07
-1.89889e-05
-3.10664e-07
-2.50138e-05
-9.8735e-07
-3.19671e-05
-1.6805e-06
-4.03663e-05
-2.15502e-06
-5.17602e-05
-7.02434e-05
1.51479e-05
7.71892e-06
1.47692e-05
4.20378e-06
1.42686e-05
4.18245e-07
1.36511e-05
-3.63882e-06
1.28863e-05
-7.97782e-06
1.19201e-05
-1.26514e-05
1.0683e-05
-1.7753e-05
9.09667e-06
-2.34283e-05
7.06813e-06
-2.99393e-05
4.52658e-06
-3.78271e-05
1.63163e-06
-4.8865e-05
-6.86131e-05
2.72024e-05
7.8357e-06
2.68497e-05
4.55587e-06
2.63077e-05
9.59442e-07
2.5578e-05
-2.91004e-06
2.46149e-05
-7.01562e-06
2.3335e-05
-1.13724e-05
2.16167e-05
-1.60355e-05
1.93077e-05
-2.112e-05
1.61845e-05
-2.68169e-05
1.19748e-05
-3.36168e-05
6.5296e-06
-4.34221e-05
-6.20831e-05
3.90969e-05
7.86541e-06
3.87903e-05
4.8618e-06
3.82631e-05
1.48602e-06
3.75207e-05
-2.16852e-06
3.65136e-05
-6.0091e-06
3.51409e-05
-1.00004e-05
3.32361e-05
-1.41312e-05
3.05769e-05
-1.84611e-05
2.67709e-05
-2.30107e-05
2.13021e-05
-2.81488e-05
1.32161e-05
-3.53348e-05
-4.88665e-05
5.10573e-05
7.96233e-06
5.07174e-05
5.20112e-06
5.01928e-05
2.00989e-06
4.94948e-05
-1.47109e-06
4.85784e-05
-5.09336e-06
4.73446e-05
-8.76705e-06
4.56115e-05
-1.23983e-05
4.31121e-05
-1.59617e-05
3.92855e-05
-1.91841e-05
3.33268e-05
-2.21892e-05
2.25465e-05
-2.45536e-05
-2.63197e-05
6.32871e-05
8.42261e-06
6.2727e-05
5.76082e-06
6.21176e-05
2.61874e-06
6.14744e-05
-8.28173e-07
6.07611e-05
-4.38034e-06
5.98929e-05
-7.89891e-06
5.87136e-05
-1.1219e-05
5.69824e-05
-1.42304e-05
5.41401e-05
-1.63412e-05
4.9043e-05
-1.70914e-05
3.75529e-05
-1.30631e-05
1.12352e-05
6.13297e-06
-6.13148e-06
1.04691e-05
-4.33457e-06
1.34131e-05
-2.94317e-06
1.33229e-05
9.30539e-08
8.83085e-06
4.4923e-06
-6.61543e-08
8.90017e-06
-1.78015e-05
1.77349e-05
-3.68038e-05
1.90039e-05
-5.11847e-05
1.43804e-05
-6.27853e-05
1.16011e-05
-7.14123e-05
8.62635e-06
6.1751e-06
-7.75875e-05
2.70465e-06
-8.83482e-06
3.18124e-06
-4.80958e-06
-5.96577e-07
8.35723e-07
-9.74534e-06
9.24312e-06
-2.39509e-05
1.86982e-05
-3.90674e-05
2.40174e-05
-4.66995e-05
2.53672e-05
-5.06614e-05
2.29666e-05
-5.49702e-05
1.86891e-05
-5.86986e-05
1.53298e-05
-6.16265e-05
1.15539e-05
8.21766e-06
-6.36691e-05
-7.96682e-07
-8.03699e-06
-4.6434e-06
-9.61664e-07
-1.30621e-05
9.25504e-06
-2.39805e-05
2.01623e-05
-3.26099e-05
2.73279e-05
-3.78568e-05
2.9265e-05
-4.05974e-05
2.81081e-05
-4.24857e-05
2.48553e-05
-4.45803e-05
2.07838e-05
-4.61802e-05
1.693e-05
-4.76221e-05
1.29956e-05
9.369e-06
-4.87735e-05
-4.5226e-06
-3.51261e-06
-1.08399e-05
5.35687e-06
-1.79038e-05
1.63196e-05
-2.40965e-05
2.63557e-05
-2.80013e-05
3.12332e-05
-3.02817e-05
3.1546e-05
-3.15446e-05
2.93714e-05
-3.23648e-05
2.5676e-05
-3.31532e-05
2.15724e-05
-3.38609e-05
1.76379e-05
-3.46491e-05
1.37836e-05
1.00804e-05
-3.53606e-05
-5.49499e-06
1.98486e-06
-1.09627e-05
1.0826e-05
-1.5573e-05
2.09308e-05
-1.86571e-05
2.94409e-05
-2.02889e-05
3.28656e-05
-2.08819e-05
3.214e-05
-2.08002e-05
2.92902e-05
-2.07639e-05
2.56403e-05
-2.09544e-05
2.17631e-05
-2.12837e-05
1.79675e-05
-2.17278e-05
1.42277e-05
1.05467e-05
-2.2194e-05
-4.84993e-06
6.83782e-06
-8.76495e-06
1.47424e-05
-1.12505e-05
2.3418e-05
-1.20803e-05
3.02718e-05
-1.17809e-05
3.25677e-05
-1.08387e-05
3.11988e-05
-9.91828e-06
2.8371e-05
-9.27216e-06
2.49947e-05
-8.96473e-06
2.14563e-05
-8.92802e-06
1.79309e-05
-9.10067e-06
1.44007e-05
1.08426e-05
-9.39673e-06
-3.73349e-06
1.05742e-05
-6.28268e-06
1.72936e-05
-6.81976e-06
2.39566e-05
-5.57562e-06
2.90296e-05
-3.38938e-06
3.03829e-05
-1.18613e-06
2.89973e-05
6.40706e-07
2.65451e-05
1.96324e-06
2.36733e-05
2.7862e-06
2.06338e-05
3.19588e-06
1.75218e-05
3.27976e-06
1.43168e-05
1.09887e-05
3.13394e-06
-3.46739e-06
1.40431e-05
-4.74478e-06
1.85732e-05
-3.4102e-06
2.26239e-05
1.45219e-08
2.56069e-05
4.07798e-06
2.63211e-05
7.71718e-06
2.53596e-05
1.06238e-05
2.36397e-05
1.27531e-05
2.15449e-05
1.41702e-05
1.92175e-05
1.49969e-05
1.66955e-05
1.53596e-05
1.39544e-05
1.09707e-05
1.53777e-05
-3.41613e-06
1.74633e-05
-3.68804e-06
1.88474e-05
-3.13964e-07
1.92518e-05
5.09413e-06
2.02006e-05
1.08808e-05
2.05361e-05
1.59762e-05
2.02657e-05
2.00486e-05
1.95685e-05
2.30763e-05
1.85183e-05
2.51605e-05
1.7134e-05
2.64548e-05
1.54017e-05
2.713e-05
1.32796e-05
1.07621e-05
2.73388e-05
-4.58797e-06
2.20522e-05
-1.68916e-06
1.59495e-05
4.73281e-06
1.28311e-05
1.19651e-05
1.29692e-05
1.8985e-05
1.35174e-05
2.50633e-05
1.41882e-05
2.99488e-05
1.46839e-05
3.36342e-05
1.48335e-05
3.62268e-05
1.4542e-05
3.78824e-05
1.37464e-05
3.87982e-05
1.23641e-05
1.04096e-05
3.91508e-05
3.82522e-07
2.16708e-05
8.46379e-06
7.86876e-06
1.71548e-05
4.14058e-06
2.51537e-05
4.97105e-06
3.21181e-05
6.55362e-06
3.79414e-05
8.36562e-06
4.25895e-05
1.00364e-05
4.60964e-05
1.13272e-05
4.85617e-05
1.20772e-05
5.01072e-05
1.22013e-05
5.09255e-05
1.1546e-05
1.01563e-05
5.1179e-05
2.60607e-05
-4.39065e-06
3.64388e-05
-2.50983e-06
4.30122e-05
-2.43328e-06
4.85267e-05
-5.43638e-07
5.3029e-05
2.05108e-06
5.67186e-05
4.67595e-06
5.96449e-05
7.11014e-06
6.17959e-05
9.17622e-06
6.31951e-05
1.06782e-05
6.38896e-05
1.15068e-05
6.40443e-05
1.13913e-05
6.37679e-05
1.04326e-05
-8.14491e-05
3.861e-06
-8.32149e-05
1.76541e-06
-8.29989e-05
-2.16624e-07
-8.0982e-05
-2.01747e-06
-7.7179e-05
-3.80365e-06
-7.14585e-05
-5.72107e-06
-6.37104e-05
-7.74874e-06
-5.37488e-05
-9.96222e-06
-4.13968e-05
-1.23525e-05
-2.67278e-05
-1.46697e-05
-1.11103e-05
-1.5619e-05
-1.11109e-05
-6.49088e-05
5.10028e-06
-6.53778e-05
2.23403e-06
-6.51119e-05
-4.83076e-07
-6.39974e-05
-3.13246e-06
-6.18691e-05
-5.93262e-06
-5.86247e-05
-8.96607e-06
-5.40706e-05
-1.23036e-05
-4.80165e-05
-1.6017e-05
-4.01988e-05
-2.0171e-05
-3.02818e-05
-2.45874e-05
-1.77339e-05
-2.8168e-05
-2.88452e-05
-4.96244e-05
5.95087e-06
-5.00689e-05
2.67817e-06
-4.99757e-05
-5.76608e-07
-4.91793e-05
-3.92927e-06
-4.76149e-05
-7.49754e-06
-4.52e-05
-1.13815e-05
-4.18306e-05
-1.56737e-05
-3.73833e-05
-2.0465e-05
-3.17249e-05
-2.58301e-05
-2.43836e-05
-3.19294e-05
-1.44558e-05
-3.80967e-05
-4.33011e-05
-3.58942e-05
6.48437e-06
-3.61389e-05
2.92268e-06
-3.60026e-05
-7.13172e-07
-3.5412e-05
-4.52016e-06
-3.43166e-05
-8.59332e-06
-3.26563e-05
-1.30423e-05
-3.03704e-05
-1.796e-05
-2.74019e-05
-2.34341e-05
-2.3561e-05
-2.96715e-05
-1.85176e-05
-3.69733e-05
-1.13587e-05
-4.52562e-05
-5.46602e-05
-2.25927e-05
6.88299e-06
-2.28381e-05
3.16801e-06
-2.28646e-05
-6.86931e-07
-2.26242e-05
-4.76074e-06
-2.20814e-05
-9.13658e-06
-2.11961e-05
-1.3928e-05
-1.99343e-05
-1.92224e-05
-1.82299e-05
-2.5139e-05
-1.59502e-05
-3.19518e-05
-1.29165e-05
-4.00078e-05
-8.04992e-06
-5.01239e-05
-6.27105e-05
-9.73035e-06
7.21672e-06
-1.00298e-05
3.46716e-06
-1.02446e-05
-4.72382e-07
-1.03426e-05
-4.66316e-06
-1.03062e-05
-9.17356e-06
-1.01385e-05
-1.40964e-05
-9.82597e-06
-1.95355e-05
-9.3289e-06
-2.56371e-05
-8.61479e-06
-3.26672e-05
-7.53879e-06
-4.10848e-05
-5.40517e-06
-5.22587e-05
-6.81169e-05
2.84807e-06
7.50234e-06
2.49141e-06
3.8237e-06
2.10489e-06
-8.64228e-08
1.70501e-06
-4.26383e-06
1.28416e-06
-8.75368e-06
8.19414e-07
-1.36325e-05
2.91173e-07
-1.90086e-05
-3.10458e-07
-2.50366e-05
-9.85966e-07
-3.19924e-05
-1.67911e-06
-4.03937e-05
-2.15294e-06
-5.1787e-05
-7.02704e-05
1.5159e-05
7.72102e-06
1.47791e-05
4.20334e-06
1.42775e-05
4.14793e-07
1.36588e-05
-3.64592e-06
1.28931e-05
-7.98878e-06
1.1926e-05
-1.26666e-05
1.06886e-05
-1.7772e-05
9.10206e-06
-2.34509e-05
7.07281e-06
-2.99649e-05
4.53166e-06
-3.78532e-05
1.63467e-06
-4.88913e-05
-6.86372e-05
2.72206e-05
7.83925e-06
2.68667e-05
4.557e-06
2.63235e-05
9.57542e-07
2.55924e-05
-2.91556e-06
2.46279e-05
-7.02515e-06
2.33467e-05
-1.13863e-05
2.16272e-05
-1.60535e-05
1.93172e-05
-2.11419e-05
1.61935e-05
-2.68412e-05
1.19819e-05
-3.36432e-05
6.53466e-06
-4.34463e-05
-6.21027e-05
3.91198e-05
7.87016e-06
3.88122e-05
4.86441e-06
3.82836e-05
1.48555e-06
3.75398e-05
-2.17242e-06
3.6531e-05
-6.01714e-06
3.51568e-05
-1.00127e-05
3.32504e-05
-1.41477e-05
3.05899e-05
-1.84816e-05
2.67821e-05
-2.30344e-05
2.13119e-05
-2.81732e-05
1.32223e-05
-3.5357e-05
-4.88812e-05
5.10812e-05
7.9678e-06
5.07406e-05
5.2047e-06
5.02151e-05
2.0105e-06
4.95158e-05
-1.47381e-06
4.8598e-05
-5.10008e-06
4.73627e-05
-8.77794e-06
4.56279e-05
-1.24134e-05
4.31267e-05
-1.59807e-05
3.92984e-05
-1.92059e-05
3.33371e-05
-2.22123e-05
2.25529e-05
-2.45733e-05
-2.63274e-05
6.33077e-05
8.42782e-06
6.27476e-05
5.76449e-06
6.21382e-05
2.61959e-06
6.14944e-05
-8.30543e-07
6.07804e-05
-4.38631e-06
5.9911e-05
-7.90883e-06
5.87302e-05
-1.12327e-05
5.69973e-05
-1.42477e-05
5.41529e-05
-1.63615e-05
4.90533e-05
-1.71124e-05
3.75598e-05
-1.3079e-05
1.1232e-05
6.13438e-06
-6.13224e-06
1.0469e-05
-4.33321e-06
1.34141e-05
-2.94484e-06
1.33353e-05
8.05439e-08
8.86578e-06
4.4688e-06
-2.52548e-09
8.86996e-06
-1.77015e-05
1.76981e-05
-3.67168e-05
1.90163e-05
-5.11096e-05
1.43922e-05
-6.27198e-05
1.16106e-05
-7.13546e-05
8.6344e-06
6.18243e-06
-7.75369e-05
2.71129e-06
-8.8418e-06
3.20724e-06
-4.82709e-06
-5.47851e-07
8.11144e-07
-9.65981e-06
9.19333e-06
-2.38537e-05
1.86628e-05
-3.89926e-05
2.40093e-05
-4.66655e-05
2.5371e-05
-5.06317e-05
2.2983e-05
-5.4942e-05
1.87024e-05
-5.86728e-05
1.53418e-05
-6.16031e-05
1.15645e-05
8.22669e-06
-6.36473e-05
-7.79762e-07
-8.05977e-06
-4.6009e-06
-1.00403e-06
-1.29945e-05
9.20562e-06
-2.3925e-05
2.01246e-05
-3.258e-05
2.7318e-05
-3.78377e-05
2.92677e-05
-4.05847e-05
2.81181e-05
-4.24708e-05
2.48695e-05
-4.45647e-05
2.07964e-05
-4.6165e-05
1.69423e-05
-4.76063e-05
1.30058e-05
9.37751e-06
-4.87571e-05
-4.50984e-06
-3.54678e-06
-1.08147e-05
5.30281e-06
-1.78804e-05
1.62723e-05
-2.40868e-05
2.6332e-05
-2.79965e-05
3.12282e-05
-3.02794e-05
3.15513e-05
-3.15438e-05
2.93828e-05
-3.23631e-05
2.56893e-05
-3.31504e-05
2.15836e-05
-3.38552e-05
1.76474e-05
-3.46409e-05
1.37912e-05
1.00873e-05
-3.53506e-05
-5.4805e-06
1.93776e-06
-1.09498e-05
1.07736e-05
-1.55647e-05
2.08888e-05
-1.86623e-05
2.94303e-05
-2.02973e-05
3.28646e-05
-2.0893e-05
3.21471e-05
-2.08089e-05
2.93001e-05
-2.07694e-05
2.56493e-05
-2.09562e-05
2.17713e-05
-2.12832e-05
1.79737e-05
-2.17248e-05
1.42331e-05
1.05515e-05
-2.21896e-05
-4.85124e-06
6.791e-06
-8.77048e-06
1.46948e-05
-1.12638e-05
2.33829e-05
-1.20929e-05
3.02618e-05
-1.17975e-05
3.25693e-05
-1.08533e-05
3.12051e-05
-9.93115e-06
2.83774e-05
-9.28108e-06
2.50007e-05
-8.9715e-06
2.14608e-05
-8.93186e-06
1.79349e-05
-9.10335e-06
1.44037e-05
1.08459e-05
-9.39747e-06
-3.74127e-06
1.05351e-05
-6.29864e-06
1.7254e-05
-6.84209e-06
2.39283e-05
-5.5966e-06
2.90176e-05
-3.40925e-06
3.03841e-05
-1.2039e-06
2.90005e-05
6.26193e-07
2.65487e-05
1.95102e-06
2.36759e-05
2.77668e-06
2.06357e-05
3.1878e-06
1.75234e-05
3.27323e-06
1.43183e-05
1.09903e-05
3.12826e-06
-3.47927e-06
1.40182e-05
-4.76701e-06
1.85441e-05
-3.43787e-06
2.2602e-05
-1.24658e-08
2.55944e-05
4.05547e-06
2.63179e-05
7.69828e-06
2.53592e-05
1.06079e-05
2.364e-05
1.27395e-05
2.1545e-05
1.41583e-05
1.92172e-05
1.49863e-05
1.66954e-05
1.53499e-05
1.39545e-05
1.09712e-05
1.53687e-05
-3.43066e-06
1.74505e-05
-3.71292e-06
1.88292e-05
-3.43607e-07
1.92335e-05
5.06571e-06
2.01874e-05
1.08568e-05
2.05286e-05
1.59563e-05
2.02613e-05
2.00318e-05
1.95656e-05
2.30615e-05
1.85161e-05
2.5147e-05
1.71321e-05
2.64424e-05
1.54002e-05
2.71182e-05
1.32787e-05
1.07618e-05
2.73274e-05
-4.60065e-06
2.20544e-05
-1.70873e-06
1.5938e-05
4.70975e-06
1.28186e-05
1.19415e-05
1.29567e-05
1.89637e-05
1.35079e-05
2.50448e-05
1.41814e-05
2.99326e-05
1.46789e-05
3.36196e-05
1.48298e-05
3.62131e-05
1.4539e-05
3.78694e-05
1.3744e-05
3.87856e-05
1.23625e-05
1.04087e-05
3.91384e-05
3.78465e-07
2.16768e-05
8.45525e-06
7.86347e-06
1.71427e-05
4.12998e-06
2.51406e-05
4.96035e-06
3.21053e-05
6.54438e-06
3.79296e-05
8.35823e-06
4.25785e-05
1.00308e-05
4.60859e-05
1.1323e-05
4.85513e-05
1.20741e-05
5.00967e-05
1.21988e-05
5.09149e-05
1.15443e-05
1.01552e-05
5.11681e-05
2.60683e-05
-4.39097e-06
3.64452e-05
-2.51464e-06
4.30171e-05
-2.43956e-06
4.8529e-05
-5.51472e-07
5.30296e-05
2.044e-06
5.67179e-05
4.67025e-06
5.9643e-05
7.10597e-06
6.1793e-05
9.17337e-06
6.31909e-05
1.06763e-05
6.38842e-05
1.15055e-05
6.40379e-05
1.13904e-05
6.37605e-05
1.04323e-05
-8.14047e-05
3.86734e-06
-8.31762e-05
1.77137e-06
-8.29652e-05
-2.11429e-07
-8.09533e-05
-2.0123e-06
-7.71553e-05
-3.7984e-06
-7.14398e-05
-5.71587e-06
-6.3697e-05
-7.74324e-06
-5.37406e-05
-9.95666e-06
-4.13941e-05
-1.23468e-05
-2.67286e-05
-1.46658e-05
-1.10941e-05
-1.56353e-05
-1.10944e-05
-6.48883e-05
5.10808e-06
-6.53579e-05
2.24092e-06
-6.50931e-05
-4.76605e-07
-6.39799e-05
-3.12571e-06
-6.18531e-05
-5.92566e-06
-5.86101e-05
-8.95912e-06
-5.40571e-05
-1.22967e-05
-4.80037e-05
-1.60104e-05
-4.0186e-05
-2.0165e-05
-3.027e-05
-2.45822e-05
-1.77428e-05
-2.81632e-05
-2.88374e-05
-4.96077e-05
5.95848e-06
-5.00521e-05
2.6853e-06
-4.99595e-05
-5.69457e-07
-4.91636e-05
-3.92185e-06
-4.75998e-05
-7.48969e-06
-4.51859e-05
-1.13734e-05
-4.18177e-05
-1.56653e-05
-3.7372e-05
-2.04564e-05
-3.17159e-05
-2.58216e-05
-2.43773e-05
-3.19212e-05
-1.44526e-05
-3.80884e-05
-4.32901e-05
-3.58831e-05
6.49075e-06
-3.6127e-05
2.92918e-06
-3.59904e-05
-7.06335e-07
-3.53998e-05
-4.51262e-06
-3.43048e-05
-8.58495e-06
-3.26453e-05
-1.30331e-05
-3.03607e-05
-1.79502e-05
-2.73938e-05
-2.34237e-05
-2.35549e-05
-2.96609e-05
-1.85135e-05
-3.6963e-05
-1.13562e-05
-4.52461e-05
-5.46467e-05
-2.25868e-05
6.88812e-06
-2.28316e-05
3.17339e-06
-2.28574e-05
-6.8061e-07
-2.2617e-05
-4.75349e-06
-2.20743e-05
-9.12802e-06
-2.11896e-05
-1.39182e-05
-1.99286e-05
-1.92116e-05
-1.82253e-05
-2.51275e-05
-1.59466e-05
-3.19399e-05
-1.29143e-05
-3.99958e-05
-8.04965e-06
-5.01121e-05
-6.26967e-05
-9.73034e-06
7.22013e-06
-1.00286e-05
3.47156e-06
-1.0243e-05
-4.67069e-07
-1.03406e-05
-4.65643e-06
-1.03041e-05
-9.1654e-06
-1.01364e-05
-1.40866e-05
-9.82438e-06
-1.95245e-05
-9.32772e-06
-2.56248e-05
-8.61426e-06
-3.26543e-05
-7.53949e-06
-4.10723e-05
-5.40614e-06
-5.2246e-05
-6.81043e-05
2.8435e-06
7.50459e-06
2.48751e-06
3.82678e-06
2.10176e-06
-8.20292e-08
1.70235e-06
-4.25805e-06
1.28202e-06
-8.74608e-06
8.17403e-07
-1.36232e-05
2.89344e-07
-1.89974e-05
-3.12427e-07
-2.50243e-05
-9.88438e-07
-3.19797e-05
-1.68087e-06
-4.03804e-05
-2.15504e-06
-5.1775e-05
-7.02595e-05
1.51506e-05
7.72215e-06
1.47714e-05
4.20546e-06
1.42704e-05
4.18089e-07
1.36525e-05
-3.64101e-06
1.28875e-05
-7.98211e-06
1.19211e-05
-1.26578e-05
1.06839e-05
-1.77613e-05
9.09739e-06
-2.34387e-05
7.06883e-06
-2.99517e-05
4.52737e-06
-3.78411e-05
1.63218e-06
-4.88794e-05
-6.86283e-05
2.72096e-05
7.83956e-06
2.68563e-05
4.55817e-06
2.63138e-05
9.5986e-07
2.55836e-05
-2.91168e-06
2.46201e-05
-7.01942e-06
2.33397e-05
-1.13783e-05
2.16208e-05
-1.60431e-05
1.93112e-05
-2.11297e-05
1.61873e-05
-2.68285e-05
1.19769e-05
-3.36301e-05
6.53119e-06
-4.34355e-05
-6.20967e-05
3.91077e-05
7.86986e-06
3.88006e-05
4.8647e-06
3.82728e-05
1.48699e-06
3.753e-05
-2.16959e-06
3.65223e-05
-6.01233e-06
3.5149e-05
-1.00056e-05
3.32433e-05
-1.41379e-05
3.05831e-05
-1.84697e-05
2.67759e-05
-2.3021e-05
2.13058e-05
-2.81605e-05
1.32186e-05
-3.5347e-05
-4.88773e-05
5.10703e-05
7.96723e-06
5.07299e-05
5.20456e-06
5.02049e-05
2.01128e-06
4.95064e-05
-1.47173e-06
4.85896e-05
-5.09608e-06
4.73553e-05
-8.77159e-06
4.56213e-05
-1.24042e-05
4.31208e-05
-1.59692e-05
3.92926e-05
-1.91927e-05
3.33319e-05
-2.21989e-05
2.25499e-05
-2.45636e-05
-2.63265e-05
6.32997e-05
8.42755e-06
6.27394e-05
5.76448e-06
6.21301e-05
2.62012e-06
6.14868e-05
-8.28785e-07
6.07734e-05
-4.38287e-06
5.99048e-05
-7.90306e-06
5.87249e-05
-1.12242e-05
5.69931e-05
-1.42372e-05
5.41498e-05
-1.63488e-05
4.90508e-05
-1.7099e-05
3.75582e-05
-1.30704e-05
1.12331e-05
7.58935e-05
-2.35979e-06
-7.79182e-05
7.6898e-05
-3.50935e-06
7.70299e-05
-2.56079e-06
7.74615e-05
-9.66706e-07
7.81903e-05
1.33188e-06
7.89515e-05
3.92328e-06
7.95222e-05
6.54542e-06
7.97329e-05
8.9685e-06
7.95107e-05
1.09002e-05
7.8835e-05
1.21791e-05
7.78687e-05
1.23511e-05
1.162e-05
7.66717e-05
9.68366e-05
-4.77167e-06
-9.44256e-05
9.78829e-05
-4.55653e-06
9.8462e-05
-3.14084e-06
9.8687e-05
-1.19253e-06
9.8689e-05
1.32928e-06
9.84112e-05
4.20072e-06
9.77611e-05
7.1952e-06
9.66672e-05
1.00622e-05
9.51222e-05
1.24451e-05
9.31621e-05
1.41391e-05
9.10345e-05
1.44785e-05
1.38287e-05
8.88255e-05
0.000111815
-6.72222e-06
-0.000109865
0.000113001
-5.74381e-06
0.000113733
-3.87446e-06
0.00011399
-1.44971e-06
0.000113797
1.52082e-06
0.00011312
4.87727e-06
0.000111891
8.4234e-06
0.000110059
1.18942e-05
0.000107626
1.48777e-05
0.000104735
1.70298e-05
0.000101743
1.74704e-05
1.6679e-05
9.88933e-05
0.000124771
-0.000123797
-7.69726e-06
0.000125307
-6.28149e-06
0.000125426
-3.99457e-06
0.000125103
-1.1274e-06
0.000124298
2.32425e-06
0.000122937
6.23769e-06
0.000120948
1.04124e-05
0.000118317
1.45247e-05
0.000115118
1.80767e-05
0.000111711
2.04362e-05
0.000108554
2.06271e-05
0.00010648