/*--------------------------------*- C++ -*----------------------------------*\
| =========                 |                                                 |
| \\      /  F ield         | OpenFOAM: The Open Source CFD Toolbox           |
|  \\    /   O peration     | Version:  v1912                                 |
|   \\  /    A nd           | Website:  www.openfoam.com                      |
|    \\/     M anipulation  |                                                 |
\*---------------------------------------------------------------------------*/
FoamFile
{
    version     2.0;
    format      ascii;
    class       volVectorField;
    location    "200";
    object      U;
}
// * * * * * * * * * * * * * * * * * * * * * * * * * * * * * * * * * * * * * //

dimensions      [0 1 -1 0 0 0 0];


internalField   nonuniform List<vector> 
3072
(
(0.105396 2.22318 0)
(0.128904 1.91087 0)
(0.220372 1.72281 1.31141e-19)
(0.35311 1.59975 1.51274e-18)
(0.450997 1.67698 -1.76441e-18)
(0.895352 1.87539 9.96256e-19)
(2.07832 1.65515 1.35981e-19)
(3.01005 2.27516 4.05307e-19)
(3.21588 2.73385 -1.12437e-18)
(3.60748 3.02725 1.21142e-18)
(3.94093 3.13637 9.46554e-20)
(4.27725 3.17381 3.76707e-19)
(-0.520629 2.7735 -2.14012e-19)
(-0.271905 2.34114 -3.2014e-19)
(0.088519 2.44063 4.10939e-19)
(0.74774 2.51883 0)
(1.7059 2.71561 4.40054e-19)
(2.60956 3.14965 -5.83624e-19)
(3.06778 3.22581 0)
(3.22237 3.33005 0)
(3.23634 3.40948 0)
(3.36284 3.45763 7.02209e-19)
(3.45996 3.5035 -1.54935e-18)
(3.59089 3.49223 6.13439e-19)
(-0.409227 3.08997 1.40726e-19)
(0.135191 2.78566 0)
(0.901793 2.95036 0)
(1.79631 3.164 -2.03488e-18)
(2.55234 3.30611 7.51015e-19)
(3.01259 3.36368 -1.82497e-18)
(3.24029 3.2738 1.9287e-18)
(3.33898 3.22117 0)
(3.38973 3.17786 0)
(3.46939 3.13587 -9.3449e-19)
(3.53388 3.08543 -7.28512e-19)
(3.61762 3.02393 2.52791e-18)
(-0.191992 3.36105 -1.38773e-18)
(0.485062 3.24138 -2.34618e-18)
(1.31952 3.3963 1.20578e-18)
(2.14206 3.47209 -1.23752e-18)
(2.70963 3.43753 3.3659e-18)
(3.00204 3.34693 -2.98685e-18)
(3.164 3.23491 -1.72555e-18)
(3.22302 3.14318 -4.72219e-18)
(3.24857 3.06761 -9.09501e-20)
(3.28345 2.99712 2.53493e-18)
(3.32874 2.93472 2.69713e-18)
(3.38948 2.87019 -2.15226e-18)
(0.0983765 3.51671 0)
(0.775621 3.52088 9.72459e-19)
(1.55085 3.59959 -1.78775e-18)
(2.26166 3.55308 2.68529e-18)
(2.69083 3.42848 3.76996e-19)
(2.92135 3.29108 1.69743e-18)
(3.00393 3.14503 1.91601e-18)
(3.03993 3.02543 1.64104e-18)
(3.0672 2.92559 -3.252e-18)
(3.1049 2.83753 2.83571e-18)
(3.15099 2.75859 -3.77913e-18)
(3.20606 2.68418 5.09969e-18)
(0.326238 3.65189 -2.99077e-18)
(0.968223 3.72265 1.27338e-18)
(1.65439 3.72502 3.60938e-18)
(2.24253 3.59897 0)
(2.60497 3.41093 -4.73139e-18)
(2.75493 3.22527 5.75623e-18)
(2.82171 3.05401 0)
(2.85853 2.91004 -4.12512e-18)
(2.88956 2.78983 3.53973e-18)
(2.92704 2.68693 0)
(2.97113 2.5973 2.09503e-19)
(3.0216 2.51753 3.17242e-18)
(0.494686 3.8033 0)
(1.07816 3.92345 -3.15546e-18)
(1.66706 3.8528 2.79941e-18)
(2.15869 3.6583 0)
(2.43795 3.41976 -3.58571e-18)
(2.56427 3.18621 5.76422e-19)
(2.62894 2.98263 5.22229e-18)
(2.67071 2.81112 4.57204e-18)
(2.70758 2.66836 -3.97958e-18)
(2.74791 2.54853 3.82095e-18)
(2.79267 2.44711 -3.2957e-18)
(2.84182 2.36061 -9.15517e-18)
(0.628917 4.00851 0)
(1.13071 4.16509 2.97321e-18)
(1.61178 4.0298 -4.83612e-18)
(2.00264 3.7787 5.09227e-18)
(2.23612 3.4767 0)
(2.35683 3.19035 -6.31921e-18)
(2.4284 2.94335 5.82538e-18)
(2.47998 2.73644 3.47076e-20)
(2.52542 2.56576 -8.97035e-18)
(2.57101 2.42518 -4.04499e-18)
(2.61841 2.30944 -1.9413e-19)
(2.66802 2.21416 7.07718e-18)
(0.725807 4.19678 0)
(1.15785 4.43916 -3.95224e-18)
(1.50887 4.22916 -5.82248e-18)
(1.80144 3.92577 -4.26843e-18)
(2.00019 3.57098 8.3074e-18)
(2.12765 3.23171 0)
(2.21625 2.93588 0)
(2.28417 2.68762 0)
(2.34229 2.48371 0)
(2.39615 2.31829 4.35996e-18)
(2.44814 2.18527 -4.238e-18)
(2.4997 2.07881 4.01035e-18)
(0.834101 4.54725 0)
(1.08438 4.70405 2.75249e-18)
(1.3104 4.37366 -6.14412e-19)
(1.54212 4.00348 4.63673e-18)
(1.72423 3.61251 4.43058e-18)
(1.86696 3.24094 -7.13638e-18)
(1.97918 2.91232 0)
(2.07044 2.63345 -1.94164e-19)
(2.14731 2.4025 -1.66102e-17)
(2.21503 2.21526 0)
(2.27593 2.06642 9.7907e-18)
(2.33261 1.94961 -4.51312e-18)
(1.07973 4.5841 0)
(0.940195 4.6431 3.10569e-18)
(1.00453 4.22918 9.3219e-18)
(1.19383 3.81106 -7.98543e-18)
(1.38207 3.43685 -1.09865e-17)
(1.54971 3.0846 1.72524e-17)
(1.69424 2.76937 -1.68299e-19)
(1.81727 2.49753 -6.33701e-18)
(1.92158 2.26789 5.21074e-18)
(2.01162 2.07921 -1.08213e-17)
(2.08887 1.92872 -1.50625e-17)
(2.15708 1.81097 1.51688e-17)
(0.31346 3.97317 -1.56322e-18)
(0.434564 3.84239 -1.18442e-17)
(0.568411 3.4849 2.06039e-18)
(0.7723 3.16318 0)
(0.989016 2.90585 0)
(1.18996 2.65574 2.1084e-19)
(1.36939 2.42207 1.61356e-17)
(1.52701 2.21066 1.00431e-17)
(1.66375 2.02531 0)
(1.78296 1.86862 9.47011e-18)
(1.88351 1.742 0)
(1.97024 1.64196 3.80605e-19)
(4.52886 3.09397 2.05636e-18)
(4.74192 2.96463 -1.15778e-18)
(4.85952 2.77066 3.6112e-19)
(4.919 2.55643 -3.51477e-19)
(4.89776 2.3034 -9.84124e-20)
(4.80332 2.04943 0)
(4.61383 1.78401 0)
(4.34023 1.53499 6.63923e-19)
(3.96609 1.29562 -7.79615e-19)
(3.45182 1.03687 0)
(2.91254 0.669759 0)
(2.68432 -0.0516666 -1.66304e-20)
(3.72194 3.43729 7.71157e-19)
(3.85868 3.34028 0)
(3.98712 3.20028 -8.99751e-19)
(4.1035 3.02173 7.77471e-20)
(4.17691 2.82664 1.06688e-19)
(4.20051 2.6255 2.04207e-18)
(4.16334 2.43139 -3.37122e-18)
(4.06711 2.25923 5.59358e-19)
(3.90793 2.12407 0)
(3.56568 2.00913 0)
(3.24717 1.90459 0)
(3.29347 1.58147 5.88603e-19)
(3.70853 2.94598 9.59136e-19)
(3.80039 2.85304 -2.66681e-18)
(3.88089 2.7486 7.19532e-19)
(3.94065 2.63772 1.84331e-18)
(3.97043 2.52584 -1.94026e-18)
(3.96634 2.42325 0)
(3.92418 2.33876 0)
(3.84496 2.28407 -1.61957e-19)
(3.73241 2.27145 9.58016e-19)
(3.53969 2.29433 0)
(3.25827 2.31803 0)
(3.41747 2.26515 -3.77081e-19)
(3.45871 2.79904 2.61181e-19)
(3.52982 2.72048 2.83787e-18)
(3.59414 2.63667 2.02037e-18)
(3.64506 2.55221 -2.04077e-18)
(3.67768 2.47377 0)
(3.68922 2.40863 1.26834e-18)
(3.67747 2.36466 0)
(3.64367 2.35093 2.24876e-18)
(3.595 2.37813 -7.86124e-19)
(3.50369 2.46451 0)
(3.2913 2.59505 -4.1681e-19)
(3.58559 2.78338 4.60837e-19)
(3.26638 2.61101 -2.08068e-18)
(3.32733 2.53862 0)
(3.38363 2.46881 0)
(3.43175 2.40492 0)
(3.4696 2.35154 0)
(3.49582 2.31606 -2.14991e-18)
(3.50965 2.3036 -1.07889e-19)
(3.51419 2.32081 -1.17903e-18)
(3.50992 2.38357 0)
(3.49527 2.5074 -8.53619e-19)
(3.34512 2.69957 4.32938e-19)
(3.76645 3.01112 -1.18177e-19)
(3.07611 2.44474 -1.83937e-19)
(3.13181 2.37814 -5.25908e-18)
(3.18575 2.31873 2.48824e-18)
(3.23639 2.2687 -5.81375e-21)
(3.28306 2.2314 1.67427e-19)
(3.32654 2.21175 3.69567e-18)
(3.36839 2.21487 -1.21642e-19)
(3.41003 2.24753 -4.25739e-18)
(3.45442 2.32176 -1.74078e-18)
(3.50808 2.45837 8.57594e-19)
(3.44888 2.70767 -1.06752e-18)
(3.93257 3.12819 -3.96905e-19)
(2.89405 2.28602 8.72749e-18)
(2.94794 2.22185 2.84504e-18)
(3.00235 2.16809 0)
(3.05734 2.12578 0)
(3.11398 2.09694 1.65172e-19)
(3.17423 2.08514 -2.78926e-18)
(3.24087 2.09462 4.43178e-18)
(3.3168 2.13109 -1.08006e-19)
(3.40553 2.20461 1.5324e-18)
(3.51631 2.33433 0)
(3.54543 2.57008 -2.09005e-19)
(4.0724 3.07461 -7.13779e-20)
(2.71948 2.13567 -3.37238e-18)
(2.77264 2.07124 -3.08375e-18)
(2.82789 2.01956 3.30447e-18)
(2.88664 1.98028 -3.11293e-18)
(2.95145 1.95407 2.80571e-21)
(3.02552 1.94309 6.34284e-18)
(3.11312 1.95069 -2.95713e-18)
(3.21933 1.9815 1.70341e-18)
(3.34944 2.04387 0)
(3.51687 2.15641 1.04721e-18)
(3.63703 2.37494 4.92875e-19)
(4.17429 2.91424 -7.58286e-19)
(2.55132 1.99423 3.82067e-18)
(2.60394 1.92707 -3.68943e-18)
(2.65927 1.87456 -3.43964e-18)
(2.71983 1.83479 -7.18555e-18)
(2.78938 1.80675 6.98585e-18)
(2.87215 1.79109 -6.79001e-18)
(2.97395 1.78983 0)
(3.10186 1.80614 -1.67876e-18)
(3.26409 1.8456 0)
(3.47946 1.9242 0)
(3.69098 2.09999 0)
(4.21843 2.59958 3.6169e-19)
(2.38608 1.85923 4.33452e-18)
(2.43866 1.78884 -8.62292e-18)
(2.49329 1.73433 8.40967e-18)
(2.55341 1.69223 8.11756e-18)
(2.62361 1.65987 3.95403e-18)
(2.70867 1.63624 0)
(2.81552 1.62137 0)
(2.95295 1.61678 4.05316e-18)
(3.13292 1.62377 0)
(3.38439 1.65416 -1.16888e-18)
(3.6666 1.75297 7.47221e-19)
(4.18991 2.14059 -1.08614e-18)
(2.21685 1.7215 -9.98831e-18)
(2.27199 1.65193 9.21675e-18)
(2.32665 1.59763 -8.9951e-18)
(2.38493 1.55419 -2.27215e-17)
(2.45181 1.51764 -2.27203e-19)
(2.53219 1.48551 1.2887e-19)
(2.63304 1.45546 -4.49585e-18)
(2.76339 1.42679 -4.20169e-18)
(2.94028 1.39402 0)
(3.2021 1.36262 3.6546e-18)
(3.5294 1.33006 8.93068e-19)
(4.03463 1.35812 -1.50991e-18)
(2.04171 1.56769 -4.0782e-19)
(2.10304 1.50855 0)
(2.15933 1.46103 0)
(2.21481 1.42066 4.35995e-18)
(2.27434 1.383 1.35532e-17)
(2.34218 1.3449 -4.48237e-18)
(2.42473 1.30264 -2.08849e-19)
(2.52807 1.25301 -2.39929e-18)
(2.67341 1.18208 -2.32609e-18)
(2.88879 1.08284 -2.3497e-18)
(3.23015 0.882835 0)
(3.58254 0.154343 1.96134e-18)
(2.22291 -0.108527 1.98099e-22)
(1.90928 -0.132128 0)
(1.72339 -0.223634 -1.30399e-19)
(1.59912 -0.355455 0)
(1.67388 -0.453239 -8.7022e-19)
(1.87492 -0.889034 9.88727e-19)
(1.6532 -2.06469 0)
(2.26486 -3.00632 3.76013e-19)
(2.72889 -3.21396 -9.90849e-19)
(3.02128 -3.6041 9.36765e-19)
(3.1326 -3.93851 -4.3299e-19)
(3.16991 -4.27428 -3.77656e-19)
(2.77324 0.51988 -1.93897e-19)
(2.34013 0.271829 -3.99394e-20)
(2.43629 -0.085295 3.09887e-19)
(2.51673 -0.735564 0)
(2.70656 -1.69359 -4.45754e-19)
(3.14244 -2.60374 2.5069e-19)
(3.22071 -3.06626 0)
(3.32502 -3.2231 1.06861e-18)
(3.40542 -3.23699 -2.74824e-18)
(3.45332 -3.36255 1.51971e-18)
(3.50005 -3.45971 6.8797e-19)
(3.48897 -3.59011 -2.86154e-18)
(3.0895 0.411701 -1.40586e-19)
(2.78324 -0.129468 0)
(2.94472 -0.893774 -1.33207e-18)
(3.15822 -1.78943 0)
(3.30158 -2.54925 0)
(3.36097 -3.01204 -8.10706e-19)
(3.27118 -3.24067 4.17961e-18)
(3.21825 -3.33991 -2.54729e-18)
(3.17502 -3.39019 8.75735e-19)
(3.13304 -3.46952 0)
(3.08289 -3.53383 2.04293e-18)
(3.02156 -3.61713 -1.10375e-18)
(3.36137 0.195825 8.75212e-19)
(3.23958 -0.478621 1.30594e-18)
(3.39382 -1.31294 8.85204e-19)
(3.47061 -2.13739 1.84963e-18)
(3.43646 -2.70865 -1.56692e-18)
(3.34539 -3.00223 -1.09164e-18)
(3.23329 -3.16507 0)
(3.14123 -3.22445 0)
(3.06565 -3.24968 1.5647e-18)
(2.99512 -3.28418 0)
(2.93269 -3.32898 3.5345e-19)
(2.86823 -3.38935 8.98269e-19)
(3.51834 -0.0924038 1.83394e-18)
(3.52004 -0.768437 -7.86164e-19)
(3.59886 -1.54489 -1.79348e-18)
(3.55291 -2.25906 0)
(3.42862 -2.69031 0)
(3.29077 -2.9225 2.21756e-18)
(3.14444 -3.00551 0)
(3.02441 -3.04132 -3.80083e-18)
(2.92436 -3.06822 -1.49737e-18)
(2.83616 -3.10552 2.84138e-18)
(2.75713 -3.15126 -3.78565e-18)
(2.68272 -3.20604 2.43307e-18)
(3.65401 -0.320778 -1.66133e-18)
(3.72326 -0.962235 -1.12655e-18)
(3.72638 -1.64976 1.58454e-18)
(3.60024 -2.24104 2.47986e-19)
(3.41182 -2.60511 2.3719e-18)
(3.22586 -2.75605 -5.55242e-18)
(3.0541 -2.82298 4.89285e-18)
(2.90971 -2.85967 3.98151e-19)
(2.7892 -2.89045 0)
(2.68611 -2.92766 0)
(2.59636 -2.97149 6.11361e-18)
(2.51652 -3.02176 7.77177e-21)
(3.80577 -0.489551 -5.53405e-20)
(3.92499 -1.07325 -1.75308e-18)
(3.85533 -1.66354 0)
(3.66062 -2.15738 -3.18935e-18)
(3.42142 -2.43845 3.79061e-18)
(3.18744 -2.56527 9.73738e-18)
(2.98331 -2.63001 5.68274e-18)
(2.81137 -2.67169 6.29725e-19)
(2.66829 -2.70838 -8.27926e-18)
(2.54822 -2.74855 3.60498e-18)
(2.44666 -2.79314 3.73807e-18)
(2.36005 -2.84217 1.75494e-19)
(4.01088 -0.625559 1.97189e-19)
(4.16724 -1.12718 2.98097e-18)
(4.03294 -1.60923 0)
(3.78188 -2.00157 -5.10511e-18)
(3.47922 -2.23629 -3.73271e-18)
(3.19222 -2.35753 5.19282e-19)
(2.94462 -2.42927 -1.12014e-17)
(2.73724 -2.48083 3.08608e-19)
(2.56621 -2.52619 -2.42621e-19)
(2.42538 -2.5717 4.26965e-18)
(2.30946 -2.61902 -3.4025e-18)
(2.21403 -2.66858 1.84102e-19)
(4.19887 -0.724132 -3.62857e-18)
(4.4415 -1.15558 1.62553e-18)
(4.23234 -1.50693 -8.47333e-18)
(3.92922 -1.80036 4.26986e-18)
(3.57402 -2.00003 0)
(3.23414 -2.12805 0)
(2.93771 -2.21692 6.4032e-18)
(2.68898 -2.28494 1.12099e-17)
(2.4847 -2.34307 -4.97713e-18)
(2.31899 -2.39693 -4.36653e-18)
(2.18573 -2.44891 -4.07076e-18)
(2.07909 -2.50047 0)
(4.54871 -0.8338 5.55683e-20)
(4.70535 -1.08289 4.17088e-18)
(4.37598 -1.30887 9.99683e-18)
(4.00639 -1.54108 0)
(3.61543 -1.72389 7.87899e-18)
(3.24356 -1.86712 0)
(2.91452 -1.97967 2.47761e-19)
(2.63524 -2.07115 -5.65549e-18)
(2.40394 -2.14812 5.73443e-18)
(2.2164 -2.21591 0)
(2.06729 -2.27686 0)
(1.95027 -2.33359 -9.3059e-18)
(4.58432 -1.07962 -6.31156e-18)
(4.6437 -0.939274 3.10672e-18)
(4.23054 -1.00366 4.93281e-19)
(3.81318 -1.19313 -8.68659e-18)
(3.43921 -1.38173 -3.46031e-18)
(3.08696 -1.54975 -3.4668e-18)
(2.77154 -1.69458 -6.45834e-18)
(2.49944 -1.81786 -1.78466e-17)
(2.26954 -1.92236 -5.21514e-18)
(2.08061 -2.01252 -1.08319e-17)
(1.92988 -2.08988 1.04671e-17)
(1.8119 -2.15818 9.69151e-18)
(3.97326 -0.31347 2.98517e-18)
(3.84246 -0.434205 -1.38456e-18)
(3.48555 -0.567964 2.63651e-19)
(3.16446 -0.771808 6.58793e-18)
(2.90748 -0.988704 0)
(2.65753 -1.18989 -5.79853e-18)
(2.42389 -1.36958 5.26178e-18)
(2.21238 -1.52744 4.77693e-18)
(2.02689 -1.66439 -1.50158e-17)
(1.87004 -1.78378 9.47771e-18)
(1.74325 -1.8845 -9.31814e-18)
(1.64302 -1.97137 0)
(3.09141 -4.52656 -1.19827e-18)
(2.96208 -4.73935 3.01563e-18)
(2.76888 -4.85746 -1.44458e-18)
(2.55477 -4.91668 -1.20668e-18)
(2.30223 -4.89586 8.43794e-19)
(2.04834 -4.80134 -7.13408e-20)
(1.78313 -4.61225 -6.85553e-20)
(1.53412 -4.33874 -1.13155e-19)
(1.29475 -3.96511 -7.7949e-19)
(1.03588 -3.45121 0)
(0.668509 -2.91232 0)
(-0.0515685 -2.68458 -1.67347e-20)
(3.43453 -3.721 1.76553e-20)
(3.33785 -3.85741 1.41116e-18)
(3.19825 -3.98569 -8.99662e-19)
(3.01992 -4.10203 0)
(2.82504 -4.17551 1.12294e-18)
(2.62409 -4.19919 0)
(2.43011 -4.16218 9.66405e-19)
(2.25808 -4.0661 1.89637e-18)
(2.12302 -3.9071 -1.64409e-18)
(2.00814 -3.56503 0)
(1.90363 -3.24669 0)
(1.5805 -3.2931 4.93634e-21)
(2.94383 -3.70777 6.2531e-19)
(2.8511 -3.79942 -5.99202e-19)
(2.74683 -3.87984 7.20286e-19)
(2.63611 -3.93959 0)
(2.52434 -3.96941 -8.58255e-19)
(2.42184 -3.9654 2.32514e-18)
(2.33742 -3.92336 -3.36587e-18)
(2.28276 -3.84427 -4.17071e-18)
(2.27015 -3.73185 2.71011e-18)
(2.29302 -3.53925 0)
(2.31674 -3.25797 4.7759e-19)
(2.26382 -3.41739 1.28715e-19)
(2.7972 -3.4583 8.53531e-19)
(2.71875 -3.52923 -1.96895e-18)
(2.63504 -3.59345 2.02171e-18)
(2.55065 -3.64435 -2.04173e-18)
(2.47226 -3.67698 0)
(2.40715 -3.68858 1.26844e-18)
(2.36321 -3.6769 1.00217e-18)
(2.34948 -3.6432 6.34982e-19)
(2.37666 -3.59464 -1.58669e-18)
(2.46304 -3.50342 0)
(2.59362 -3.29115 -2.79114e-19)
(2.78193 -3.58542 4.41611e-19)
(2.60957 -3.26616 2.33423e-18)
(2.5372 -3.32698 -1.24317e-18)
(2.46742 -3.38321 0)
(2.40354 -3.43131 0)
(2.35014 -3.46918 1.21177e-18)
(2.31463 -3.49544 -9.82172e-19)
(2.30215 -3.50932 -1.93615e-19)
(2.31934 -3.51393 0)
(2.38206 -3.50973 -7.55731e-19)
(2.50588 -3.49513 8.53697e-19)
(2.69807 -3.34512 -9.39882e-19)
(3.00953 -3.76641 -1.9209e-19)
(2.44368 -3.07612 -5.26085e-18)
(2.37706 -3.13173 2.54285e-18)
(2.3176 -3.18562 5.15301e-18)
(2.26752 -3.23626 -5.81248e-21)
(2.23016 -3.28295 -6.29771e-18)
(2.21044 -3.32646 -2.71251e-18)
(2.21349 -3.36835 -1.91724e-19)
(2.24607 -3.41003 0)
(2.32023 -3.45446 0)
(2.45681 -3.50813 -8.57813e-19)
(2.70608 -3.44898 -6.23695e-19)
(3.12658 -3.9326 1.70829e-19)
(2.28537 -2.89431 2.97363e-18)
(2.22113 -2.94815 -5.89945e-18)
(2.16728 -3.00254 -2.62887e-18)
(2.12485 -3.05754 -1.56743e-19)
(2.09591 -3.1142 2.58048e-18)
(2.08399 -3.17448 2.59373e-18)
(2.09336 -3.24113 1.49463e-18)
(2.12971 -3.31708 1.47727e-18)
(2.20314 -3.40583 -1.66623e-18)
(2.33282 -3.51657 0)
(2.56861 -3.54567 1.00888e-18)
(3.07323 -4.07253 -2.82847e-19)
(2.13542 -2.72001 0)
(2.07087 -2.77315 3.08655e-18)
(2.01906 -2.8284 0)
(1.97964 -2.88718 -1.56936e-19)
(1.95328 -2.95201 2.8421e-21)
(1.94214 -3.0261 6.34314e-18)
(1.94959 -3.1137 -1.39363e-18)
(1.98025 -3.2199 -3.31882e-18)
(2.0425 -3.34997 -1.8501e-18)
(2.15498 -3.51731 1.04697e-18)
(2.37355 -3.63738 -1.93024e-18)
(2.91298 -4.17447 9.47518e-19)
(1.99435 -2.5521 3.82526e-18)
(1.92705 -2.60474 -3.69317e-18)
(1.87438 -2.6601 -3.72328e-18)
(1.83443 -2.7207 3.65944e-18)
(1.80621 -2.79028 3.49731e-18)
(1.79035 -2.87306 -1.0403e-17)
(1.78892 -2.97485 0)
(1.80505 -3.10271 1.67835e-18)
(1.84437 -3.26488 1.75623e-18)
(1.92291 -3.48011 0)
(2.09876 -3.69146 2.43701e-18)
(2.59858 -4.21872 -1.75531e-18)
(1.85969 -2.3871 0)
(1.78912 -2.43973 -8.63272e-18)
(1.73443 -2.49441 -4.47438e-18)
(1.69213 -2.55457 -7.88805e-18)
(1.65956 -2.6248 3.95618e-18)
(1.63571 -2.70986 3.77543e-18)
(1.62065 -2.8167 0)
(1.61587 -2.95406 0)
(1.62271 -3.13392 0)
(1.65303 -3.3852 0)
(1.75195 -3.66721 -7.49503e-19)
(2.13996 -4.19024 -9.4454e-20)
(1.72223 -2.21803 4.88184e-18)
(1.65246 -2.27325 4.47855e-18)
(1.59796 -2.32799 1.85171e-17)
(1.55431 -2.38631 4.78071e-18)
(1.51753 -2.45324 1.81925e-17)
(1.48517 -2.53362 -4.40909e-18)
(1.45492 -2.63443 -4.49683e-18)
(1.42606 -2.7647 0)
(1.39315 -2.94145 -4.47064e-18)
(1.36168 -3.20304 -2.4244e-18)
(1.32922 -3.53005 -1.80608e-18)
(1.35785 -4.03501 -9.47493e-26)
(1.56856 -2.04296 0)
(1.50922 -2.10439 0)
(1.4615 -2.16078 -1.84507e-17)
(1.42093 -2.21633 -1.35888e-17)
(1.38304 -2.2759 -4.37918e-18)
(1.34471 -2.34374 0)
(1.30226 -2.42624 4.50026e-18)
(1.25244 -2.52949 0)
(1.18139 -2.67466 -1.98543e-19)
(1.08212 -2.88982 2.34813e-18)
(0.882231 -3.23083 6.43302e-19)
(0.154381 -3.58294 3.87631e-18)
(-0.107777 -2.22296 8.58926e-20)
(-0.131395 -1.90965 2.38071e-19)
(-0.222618 -1.72315 -2.54407e-19)
(-0.354873 -1.59935 1.60021e-19)
(-0.452523 -1.67513 0)
(-0.892009 -1.87513 1.16149e-19)
(-2.07097 -1.65407 0)
(-3.00843 -2.26981 3.80377e-19)
(-3.21527 -2.7315 1.4602e-18)
(-3.60615 -3.02451 -4.44129e-19)
(-3.94017 -3.13497 -1.42909e-18)
(-4.27624 -3.17243 1.36561e-18)
(0.519873 -2.77341 3.6238e-19)
(0.271573 -2.34054 -3.20401e-19)
(-0.0866869 -2.43794 3.59501e-19)
(-0.740615 -2.51765 -1.16173e-19)
(-1.69892 -2.71028 -4.4274e-19)
(-2.60667 -3.14546 -1.09962e-19)
(-3.06746 -3.22287 -7.61833e-19)
(-3.22332 -3.32715 -2.09219e-18)
(-3.23722 -3.40723 3.03637e-18)
(-3.36321 -3.45532 -6.21409e-19)
(-3.46036 -3.50171 7.85451e-19)
(-3.591 -3.49061 5.77497e-19)
(0.410706 -3.08965 -2.81058e-19)
(-0.13174 -2.784 0)
(-0.897066 -2.94675 0)
(-1.79252 -3.16041 -8.32541e-19)
(-2.55105 -3.30323 0)
(-3.01288 -3.36193 -1.01619e-18)
(-3.24111 -3.27215 7.97049e-19)
(-3.34008 -3.2194 1.91969e-18)
(-3.39052 -3.17623 -1.14084e-18)
(-3.46993 -3.13433 -1.73125e-18)
(-3.53427 -3.08412 -2.76719e-18)
(-3.61773 -3.0228 2.52744e-18)
(0.194415 -3.36122 -1.75323e-18)
(-0.481276 -3.24008 -1.30519e-18)
(-1.31582 -3.39453 1.58726e-18)
(-2.13976 -3.47093 6.11585e-19)
(-2.70965 -3.43666 0)
(-3.00279 -3.34578 -3.49098e-18)
(-3.16523 -3.23374 2.82669e-18)
(-3.2244 -3.14184 0)
(-3.24968 -3.0663 2.34158e-18)
(-3.28428 -2.99585 -3.61849e-18)
(-3.32927 -2.9335 2.34418e-18)
(-3.38976 -2.86909 3.03697e-19)
(-0.0945231 -3.51779 2.71065e-18)
(-0.771295 -3.52027 2.36276e-18)
(-1.54745 -3.59903 5.40934e-19)
(-2.26036 -3.5529 0)
(-2.69111 -3.42832 -2.08056e-18)
(-2.92264 -3.2906 3.58467e-18)
(-3.0054 -3.14437 0)
(-3.04122 -3.02453 -2.07468e-18)
(-3.0682 -2.92459 -1.83259e-18)
(-3.10562 -2.83649 2.8363e-18)
(-3.15146 -2.75755 0)
(-3.20631 -2.68321 -2.17336e-18)
(-0.322709 -3.65327 1.35907e-18)
(-0.964592 -3.72294 4.88445e-19)
(-1.65176 -3.72574 -1.58147e-18)
(-2.24163 -3.59973 -7.44421e-18)
(-2.60555 -3.41122 -1.68766e-19)
(-2.75614 -3.22528 5.75692e-18)
(-2.82294 -3.05368 0)
(-2.85961 -2.90944 6.28996e-18)
(-2.89042 -2.78907 -3.59433e-18)
(-2.92768 -2.68609 3.18652e-18)
(-2.97155 -2.59642 2.09555e-19)
(-3.02185 -2.51667 -7.66661e-21)
(-0.491358 -3.80491 -1.51197e-18)
(-1.07516 -3.92437 -1.18223e-18)
(-1.6651 -3.85431 0)
(-2.1584 -3.65949 6.76653e-18)
(-2.43873 -3.4205 -1.07616e-17)
(-2.56532 -3.18658 -1.91569e-19)
(-2.62997 -2.9826 -1.0899e-17)
(-2.67162 -2.81079 3.55903e-19)
(-2.70832 -2.66783 -3.98102e-18)
(-2.74848 -2.54787 -3.82165e-18)
(-2.79307 -2.44639 3.73184e-18)
(-2.84208 -2.35987 -3.11659e-18)
(-0.626708 -4.01011 -1.28991e-19)
(-1.12855 -4.16645 -1.58196e-18)
(-1.61038 -4.03175 0)
(-2.00233 -3.78051 5.09847e-18)
(-2.23659 -3.47799 3.52916e-18)
(-2.3576 -3.19111 2.99039e-18)
(-2.42922 -2.94366 -3.90923e-19)
(-2.48075 -2.7364 -3.4869e-20)
(-2.52607 -2.56547 -4.71857e-18)
(-2.57153 -2.42473 -4.08605e-19)
(-2.61881 -2.30889 1.98123e-19)
(-2.66832 -2.21356 0)
(-0.724744 -4.19827 2.25222e-18)
(-1.15647 -4.44068 0)
(-1.50774 -4.23117 0)
(-1.80094 -3.92781 -4.26621e-18)
(-2.00031 -3.57263 3.70412e-18)
(-2.12813 -3.23285 -7.24042e-18)
(-2.21686 -2.93655 0)
(-2.28481 -2.68792 5.48683e-18)
(-2.34288 -2.48372 -2.26411e-19)
(-2.39667 -2.31809 4.36015e-18)
(-2.44857 -2.18493 -4.39579e-18)
(-2.50006 -2.07838 8.29361e-18)
(-0.833995 -4.54822 4.4266e-18)
(-1.08341 -4.70478 -1.41986e-18)
(-1.30945 -4.37505 -5.30333e-18)
(-1.54155 -4.00519 -8.94628e-18)
(-1.72414 -3.61412 0)
(-1.86721 -3.24226 6.56884e-18)
(-1.97963 -2.91329 -1.28481e-17)
(-2.07098 -2.63408 5.6616e-18)
(-2.14787 -2.40283 5.72731e-18)
(-2.21558 -2.21537 0)
(-2.27644 -2.06635 -5.19216e-18)
(-2.33308 -1.94941 -8.72644e-18)
(-1.07959 -4.58424 -6.30697e-18)
(-0.939517 -4.6433 1.40703e-18)
(-1.00397 -4.22993 4.41038e-18)
(-1.19343 -3.8123 3.76888e-18)
(-1.38195 -3.43821 -2.26878e-20)
(-1.54987 -3.0859 -1.05461e-17)
(-1.69459 -2.77048 1.244e-17)
(-1.81776 -2.4984 2.35279e-17)
(-1.92215 -2.26852 -1.63423e-17)
(-2.01222 -2.07962 -1.08212e-17)
(-2.08948 -1.92894 9.95279e-18)
(-2.15768 -1.81102 0)
(-0.313305 -3.97325 4.63056e-18)
(-0.434256 -3.8425 1.76726e-18)
(-0.568202 -3.48542 1.7971e-18)
(-0.772146 -3.1642 6.96113e-18)
(-0.989016 -2.90707 0)
(-1.19014 -2.65702 5.58386e-18)
(-1.36975 -2.42329 -1.08769e-17)
(-1.52751 -2.21173 -4.93864e-18)
(-1.66435 -2.0262 -4.97487e-18)
(-1.78363 -1.86932 9.46994e-18)
(-1.88423 -1.74251 4.91054e-18)
(-1.97099 -1.64229 1.42834e-17)
(-4.52826 -3.09337 3.99452e-19)
(-4.74119 -2.96404 3.30723e-19)
(-4.85909 -2.77046 9.09748e-19)
(-4.91842 -2.55622 -2.45915e-18)
(-4.89739 -2.30339 9.44317e-19)
(-4.80284 -2.04936 0)
(-4.6135 -1.78396 -3.00755e-19)
(-4.33987 -1.53484 2.08029e-19)
(-3.9659 -1.29536 0)
(-3.45177 -1.03635 8.03602e-20)
(-2.91243 -0.66828 0)
(-2.68517 0.0493102 -2.82033e-19)
(-3.72195 -3.43599 -2.79542e-18)
(-3.8585 -3.33921 2.30753e-18)
(-3.98685 -3.19947 1.51336e-18)
(-4.10319 -3.02109 -5.91392e-19)
(-4.17661 -2.82614 0)
(-4.20024 -2.62512 0)
(-4.16315 -2.43108 1.19108e-18)
(-4.06698 -2.25898 -1.313e-18)
(-3.90786 -2.12387 0)
(-3.56567 -2.00895 5.17049e-19)
(-3.24722 -1.90443 -8.0325e-20)
(-3.29316 -1.58098 -9.29269e-19)
(-3.70847 -2.94504 1.05032e-18)
(-3.8002 -2.85228 -1.73421e-18)
(-3.88065 -2.74798 0)
(-3.9404 -2.63722 -1.86557e-18)
(-3.97021 -2.52543 -2.03994e-18)
(-3.96616 -2.4229 4.52774e-18)
(-3.92406 -2.33844 -4.12426e-18)
(-3.84488 -2.28376 0)
(-3.73236 -2.27114 0)
(-3.53964 -2.29402 0)
(-3.25826 -2.31776 -4.60426e-19)
(-3.41739 -2.265 1.19613e-19)
(-3.4588 -2.79808 -8.51834e-19)
(-3.52979 -2.71965 -3.04795e-19)
(-3.59404 -2.63596 0)
(-3.64493 -2.55161 -2.81719e-19)
(-3.67754 -2.47325 0)
(-3.6891 -2.40817 0)
(-3.67736 -2.36425 1.12648e-18)
(-3.64359 -2.35055 -1.43496e-18)
(-3.59493 -2.37777 1.72142e-18)
(-3.50364 -2.46416 0)
(-3.29133 -2.59476 -4.16645e-19)
(-3.58542 -2.78327 -4.60649e-19)
(-3.26647 -2.61013 4.87478e-18)
(-3.32732 -2.53783 -1.24123e-18)
(-3.38355 -2.46812 2.22273e-18)
(-3.43164 -2.40431 1.00642e-18)
(-3.46947 -2.351 -3.43581e-18)
(-3.4957 -2.31557 0)
(-3.50954 -2.30316 -1.25867e-18)
(-3.5141 -2.32041 0)
(-3.50985 -2.38318 0)
(-3.49521 -2.50704 8.52847e-19)
(-3.34515 -2.69925 5.03665e-20)
(-3.76631 -3.0109 5.41069e-19)
(-3.07622 -2.44392 -2.4185e-18)
(-3.13183 -2.37739 -1.77058e-19)
(-3.18571 -2.31804 0)
(-3.23631 -2.26807 0)
(-3.28297 -2.23084 -3.98271e-18)
(-3.32645 -2.21124 2.53937e-18)
(-3.36831 -2.2144 2.62675e-18)
(-3.40997 -2.24708 1.39147e-18)
(-3.45438 -2.32134 -3.3709e-18)
(-3.50803 -2.45797 -8.57017e-19)
(-3.44892 -2.70732 0)
(-3.93245 -3.12792 6.22926e-19)
(-2.89419 -2.28529 -6.10303e-18)
(-2.948 -2.22116 2.53187e-18)
(-3.00236 -2.16745 2.79545e-18)
(-3.05733 -2.12517 1.49983e-19)
(-3.11396 -2.09639 -3.25925e-19)
(-3.17421 -2.08463 -2.94105e-18)
(-3.24085 -2.09414 -4.34221e-18)
(-3.31681 -2.13063 -1.58774e-18)
(-3.40556 -2.20417 1.53036e-18)
(-3.51632 -2.33392 0)
(-3.5455 -2.56974 1.71177e-18)
(-4.07234 -3.07439 -4.0688e-19)
(-2.71969 -2.13506 6.56339e-18)
(-2.77279 -2.07064 -3.55459e-18)
(-2.828 -2.01898 -3.30181e-18)
(-2.88673 -1.97972 -6.06272e-18)
(-2.95153 -1.95355 6.02184e-18)
(-3.02561 -1.9426 -1.62309e-19)
(-3.11321 -1.95023 9.36749e-18)
(-3.21943 -1.98105 1.51603e-18)
(-3.34955 -2.04343 1.84819e-18)
(-3.51694 -2.156 0)
(-3.63712 -2.37459 -1.19552e-18)
(-4.17428 -2.914 -5.48475e-19)
(-2.55162 -1.99376 0)
(-2.6042 -1.92659 3.53229e-18)
(-2.65951 -1.87407 3.43713e-18)
(-2.72006 -1.8343 -3.52503e-18)
(-2.78961 -1.80629 -1.34447e-19)
(-2.87238 -1.79064 -3.60703e-18)
(-2.97419 -1.78941 -3.3172e-18)
(-3.10209 -1.80573 0)
(-3.26431 -1.8452 -1.75447e-18)
(-3.47963 -1.92382 -1.1044e-18)
(-3.69112 -2.09967 3.97563e-18)
(-4.21849 -2.5994 -8.35778e-19)
(-2.38651 -1.85894 0)
(-2.43908 -1.7885 0)
(-2.49369 -1.73396 0)
(-2.55381 -1.69185 -1.22689e-17)
(-2.62401 -1.65948 7.87724e-18)
(-2.70907 -1.63585 7.67593e-18)
(-2.81591 -1.62101 0)
(-2.95332 -1.61642 -4.04763e-18)
(-3.13326 -1.62342 0)
(-3.38464 -1.65384 -2.38083e-18)
(-3.66679 -1.75272 -7.49103e-19)
(-4.19002 -2.14057 -1.08597e-18)
(-2.21744 -1.72144 0)
(-2.27259 -1.65178 0)
(-2.32725 -1.59742 9.49681e-18)
(-2.38552 -1.55394 1.3379e-17)
(-2.4524 -1.51735 3.75768e-19)
(-2.53277 -1.48521 4.53155e-18)
(-2.6336 -1.45516 -2.20678e-18)
(-2.76391 -1.42651 6.34988e-18)
(-2.94074 -1.39376 4.46643e-18)
(-3.20245 -1.36238 2.25518e-18)
(-3.52964 -1.32988 -1.80535e-18)
(-4.03478 -1.3582 -1.68784e-18)
(-2.04248 -1.56787 0)
(-2.10383 -1.5086 0)
(-2.16012 -1.46099 -8.99986e-18)
(-2.2156 -1.42055 4.79308e-18)
(-2.27511 -1.38283 -4.37457e-18)
(-2.34292 -1.34469 -4.48038e-18)
(-2.42543 -1.30243 4.70495e-18)
(-2.52871 -1.2528 0)
(-2.67397 -1.1819 -4.58326e-18)
(-2.88924 -1.08272 -2.4383e-18)
(-3.23044 -0.882748 2.28586e-18)
(-3.58268 -0.154525 -3.88288e-18)
(-2.2229 0.108342 8.59795e-20)
(-1.90927 0.131939 0)
(-1.72322 0.223422 0)
(-1.59902 0.355209 1.18491e-18)
(-1.67381 0.452981 -9.4419e-19)
(-1.87494 0.888943 0)
(-1.65309 2.06509 0)
(-2.26504 3.00682 3.81118e-19)
(-2.72912 3.21447 6.11383e-19)
(-3.02163 3.60477 2.01034e-20)
(-3.13293 3.93922 -1.85876e-18)
(-3.17028 4.2751 9.81794e-19)
(-2.77324 -0.52003 -4.9123e-19)
(-2.34009 -0.271944 0)
(-2.43627 0.0852963 0)
(-2.5167 0.735824 -7.02254e-19)
(-2.70676 1.694 9.07842e-19)
(-3.14279 2.60428 -1.21565e-18)
(-3.22106 3.06685 7.72754e-19)
(-3.32545 3.22367 8.55264e-19)
(-3.40592 3.23751 -3.37539e-19)
(-3.45389 3.36311 7.01329e-19)
(-3.50068 3.46023 0)
(-3.48965 3.59066 -8.32402e-19)
(-3.08955 -0.41182 2.80841e-19)
(-2.78325 0.129453 0)
(-2.94478 0.893907 0)
(-3.15828 1.78973 -5.36182e-19)
(-3.30174 2.54981 3.71177e-19)
(-3.36118 3.01269 -1.32906e-18)
(-3.27141 3.24134 0)
(-3.21853 3.34056 -2.71634e-18)
(-3.17532 3.39082 3.17749e-18)
(-3.13336 3.47016 -9.34539e-19)
(-3.08323 3.53444 -1.92795e-18)
(-3.0219 3.61774 2.53343e-18)
(-3.36143 -0.195946 -8.74861e-19)
(-3.23959 0.478601 1.30572e-18)
(-3.39383 1.31315 0)
(-3.47064 2.13793 6.11047e-19)
(-3.43655 2.70936 -6.34007e-19)
(-3.34553 3.00292 1.09113e-18)
(-3.23347 3.16573 0)
(-3.14143 3.22506 -1.71443e-18)
(-3.06588 3.25023 -3.90986e-18)
(-2.99537 3.28469 2.53894e-18)
(-2.93297 3.32945 2.3493e-18)
(-2.86854 3.3898 -4.61659e-18)
(-3.51839 0.0923167 1.35014e-18)
(-3.52005 0.768497 -9.78065e-19)
(-3.5989 1.54522 1.79316e-18)
(-3.55299 2.25968 0)
(-3.42863 2.69103 -4.35438e-18)
(-3.29084 2.92319 4.10711e-18)
(-3.1445 3.00611 2.46161e-18)
(-3.0245 3.04184 1.64607e-18)
(-2.92447 3.06868 0)
(-2.83629 3.10594 0)
(-2.75729 3.15165 0)
(-2.68291 3.20641 -4.9657e-19)
(-3.65402 0.320687 3.32346e-18)
(-3.72322 0.962331 0)
(-3.72635 1.65012 -1.58435e-18)
(-3.60021 2.24159 3.82557e-18)
(-3.41175 2.60582 2.37168e-18)
(-3.22579 2.75668 -5.48181e-18)
(-3.05404 2.8235 2.54934e-18)
(-2.90968 2.8601 -8.57959e-18)
(-2.78919 2.89083 -5.32978e-20)
(-2.68611 2.92799 -2.61248e-19)
(-2.5964 2.97178 2.09964e-19)
(-2.51659 3.02202 8.24656e-18)
(-3.80579 0.489444 -5.35937e-18)
(-3.92493 1.07336 3.16882e-18)
(-3.85525 1.66393 -4.76953e-18)
(-3.66045 2.15802 -3.18249e-18)
(-3.42124 2.43909 -6.77389e-18)
(-3.18723 2.5658 -3.72282e-18)
(-2.98311 2.63043 -5.36162e-18)
(-2.81118 2.67203 8.74794e-18)
(-2.66812 2.70865 0)
(-2.54808 2.74877 7.20304e-18)
(-2.44655 2.79333 -9.96538e-18)
(-2.35998 2.84232 3.32177e-18)
(-4.01092 0.625464 -2.99491e-18)
(-4.16723 1.12728 -4.75331e-18)
(-4.03289 1.60959 7.40547e-18)
(-3.7817 2.00212 0)
(-3.47894 2.23682 -4.28989e-18)
(-3.19188 2.35795 6.33487e-18)
(-2.94426 2.42958 -2.91367e-19)
(-2.73689 2.48106 3.49845e-20)
(-2.56588 2.52635 -4.48898e-18)
(-2.42508 2.57181 -8.13205e-18)
(-2.30919 2.61909 3.5759e-18)
(-2.21381 2.6686 -3.5416e-18)
(-4.19895 0.724063 2.25368e-18)
(-4.44159 1.15573 0)
(-4.23236 1.50723 0)
(-3.92906 1.80076 0)
(-3.5737 2.00041 3.70893e-18)
(-3.23371 2.12834 0)
(-2.93723 2.21712 -3.1911e-19)
(-2.68848 2.28507 1.09829e-17)
(-2.48422 2.34313 1.8628e-19)
(-2.31853 2.39694 4.36717e-18)
(-2.18532 2.44887 -4.24492e-18)
(-2.07872 2.50038 1.23242e-17)
(-4.5489 0.833887 5.55451e-20)
(-4.70547 1.08301 7.57651e-18)
(-4.37598 1.30905 -2.43994e-18)
(-4.00622 1.54131 0)
(-3.61509 1.7241 0)
(-3.24309 1.86729 0)
(-2.91397 1.97978 0)
(-2.63467 2.07118 5.8376e-18)
(-2.40336 2.1481 -2.18657e-17)
(-2.21584 2.21582 -1.04283e-17)
(-2.06677 2.27673 9.80564e-18)
(-1.94979 2.33341 5.0858e-18)
(-4.58436 1.07982 -6.30697e-18)
(-4.64364 0.939303 -4.32379e-18)
(-4.23038 1.00368 -2.60987e-18)
(-3.81288 1.19318 0)
(-3.43881 1.3818 0)
(-3.08646 1.54981 7.10723e-18)
(-2.77097 1.69461 -1.27444e-17)
(-2.49885 1.81784 2.37384e-17)
(-2.26894 1.92228 1.65368e-17)
(-2.08001 2.01239 1.0317e-17)
(-1.92931 2.0897 -9.96126e-18)
(-1.81137 2.15795 5.03861e-19)
(-3.9731 0.313461 -1.56283e-18)
(-3.84218 0.434096 0)
(-3.48522 0.567912 3.45709e-18)