/*--------------------------------*- C++ -*----------------------------------*\
| =========                 |                                                 |
| \\      /  F ield         | OpenFOAM: The Open Source CFD Toolbox           |
|  \\    /   O peration     | Version:  v1912                                 |
|   \\  /    A nd           | Website:  www.openfoam.com                      |
|    \\/     M anipulation  |                                                 |
\*---------------------------------------------------------------------------*/
FoamFile
{
    version     2.0;
    format      ascii;
    class       volScalarField;
    location    "100";
    object      epsilon;
}
// * * * * * * * * * * * * * * * * * * * * * * * * * * * * * * * * * * * * * //

dimensions      [0 2 -3 0 0 0 0];


internalField   nonuniform List<scalar> 
3072
(
19.9446
17.8499
17.2905
20.2813
61.5341
179.743
266.167
314.897
352.566
376.649
392.337
398.619
54.5696
59.0367
99.982
119.552
142.27
194.185
223.734
236.385
242.119
243.86
241.926
235.685
106.316
102.842
118.343
133.238
155.402
180.109
190.294
195.549
197.556
196.185
191.455
184.695
137.492
118.425
122.621
133.292
150.83
161.48
166.954
169.393
169.531
166.578
161.728
155.719
142.798
116.469
119.956
129.28
139.966
146.893
150.621
152.185
151.575
148.494
143.804
138.113
129.321
106.596
112.014
120.364
129.015
134.988
138.213
139.416
138.503
135.483
130.977
125.514
111.874
93.4106
102.11
111.679
119.805
125.326
128.337
129.324
128.269
125.332
120.992
115.754
92.2226
81.3304
93.6215
104.251
112.4
117.536
120.234
120.872
119.646
116.731
112.499
107.45
76.7918
70.2189
86.6489
99.3723
107.298
111.619
113.563
113.534
112.046
109.052
104.842
99.9473
58.9371
63.9085
88.6363
101.964
108.34
110.148
109.556
108.032
105.559
102.116
97.8418
93.0344
61.6894
82.0735
114.889
122.725
120.445
115.527
110.768
105.869
101.13
96.5599
91.8261
86.9103
253.948
237.651
231.043
197.445
161.863
136.326
119.625
108.446
100.157
93.2608
87.3935
82.0036
396.257
393.768
387.39
372.823
350.584
321.338
284.634
241.87
192.566
142.364
103.38
141.138
228.84
222.066
216.672
213.53
212.463
216.633
227.083
242.249
259.409
278.174
309.513
394.789
177.235
170.045
164.331
161.138
160.851
165.047
175.722
195.138
227.522
276.899
354.493
540.272
149.355
143.354
138.459
135.336
134.408
136.344
144.37
160.991
192.593
251.944
369.628
648.694
131.997
126.059
120.929
117.196
115.638
116.557
123.142
138.154
168.136
228.208
364.385
714.954
119.619
113.802
108.577
104.556
102.662
103.171
108.803
122.519
150.806
209.483
352.083
776.764
110.075
104.419
99.2764
95.2142
93.0857
93.4202
98.341
110.956
137.8
194.372
333.474
824.766
102.003
96.6021
91.6984
87.836
85.711
86.0813
90.4507
102.11
128.1
184.488
325.939
886.518
94.7376
89.6279
85.0852
81.6576
80.0202
80.5951
84.5118
95.0956
119.866
176.21
322.962
954.534
88.0339
83.2447
79.2
76.481
75.6439
76.5951
80.2703
89.4881
112
167.055
318.152
1014.5
82.0242
77.5932
74.2753
72.7256
72.9783
74.4416
77.628
84.8094
103.3
154.264
308.895
1075.87
77.06
73.0855
70.9967
71.011
72.1977
73.8545
75.648
79.7735
91.9721
132.556
275.188
1144.4
19.1679
17.2594
16.8242
19.9947
62.2176
180.598
266.518
315.142
352.645
376.621
392.212
398.439
53.8417
58.3004
99.4043
119.559
142.49
194.446
223.757
236.3
241.984
243.672
241.671
235.401
105.723
102.63
118.249
133.123
155.497
180.114
190.19
195.387
197.363
195.956
191.218
184.457
137.165
118.172
122.464
133.321
150.804
161.352
166.781
169.203
169.326
166.372
161.537
155.544
142.668
116.256
119.76
129.081
139.804
146.694
150.401
151.956
151.343
148.279
143.612
137.945
129.253
106.447
111.823
120.196
128.806
134.747
137.955
139.149
138.24
135.241
130.762
125.33
111.849
93.3119
101.934
111.477
119.567
125.058
128.049
129.026
127.975
125.058
120.748
115.544
92.2855
81.2801
93.4783
104.045
112.146
117.251
119.927
120.554
119.331
116.434
112.231
107.218
76.9057
70.2419
86.5535
99.1753
107.033
111.322
113.243
113.206
111.72
108.741
104.56
99.6993
59.0285
63.9243
88.5272
101.739
108.046
109.807
109.208
107.688
105.227
101.801
97.5531
92.7763
61.7429
82.0215
114.639
122.344
120.03
115.115
110.374
105.488
100.78
96.2367
91.5308
86.6439
253.648
237.297
230.411
196.642
161.111
135.713
119.109
108.007
99.7642
92.9148
87.084
81.7253
395.948
393.243
386.594
371.73
349.503
320.136
283.573
240.921
191.801
141.765
102.908
140.431
228.462
221.581
216.066
212.819
211.685
215.734
226.097
241.197
258.276
276.948
308.142
393.001
176.978
169.752
163.984
160.725
160.38
164.478
175.079
194.402
226.642
275.79
353.009
537.93
149.187
143.181
138.26
135.093
134.117
135.97
143.931
160.463
191.922
251.015
368.115
645.835
131.85
125.916
120.774
117.013
115.424
116.287
122.809
137.723
167.565
227.384
362.973
711.765
119.458
113.657
108.433
104.402
102.479
102.955
108.525
122.148
150.276
208.696
350.689
773.242
109.895
104.261
99.1313
95.0699
92.9294
93.2366
98.1056
110.626
137.313
193.6
332.131
820.983
101.803
96.4296
91.5465
87.6964
85.5709
85.9261
90.2552
101.83
127.657
183.739
324.532
882.436
94.5229
89.4443
84.9285
81.5216
79.8943
80.467
84.3612
94.8769
119.495
175.531
321.572
950.347
87.8086
83.0525
79.0398
76.3486
75.5303
76.4932
80.1642
89.3364
111.719
166.469
316.858
1010.27
81.789
77.3926
74.1102
72.5909
72.8683
74.3669
77.5586
84.7164
103.11
153.816
307.714
1071.82
76.8122
72.8756
70.8256
70.865
72.0961
73.7932
75.5988
79.7148
91.8544
132.241
274.263
1140.47
19.2411
17.3295
16.8947
20.0835
62.538
181.537
267.929
316.869
354.651
378.823
394.522
400.767
54.0436
58.5116
99.8
120.097
143.182
195.434
224.96
237.602
243.327
245.021
242.976
236.643
106.114
103.061
118.795
133.772
156.272
181.046
191.191
196.415
198.393
196.949
192.155
185.334
137.678
118.7
123.061
133.982
151.566
162.184
167.64
170.067
170.176
167.175
162.287
156.24
143.23
116.791
120.357
129.74
140.529
147.454
151.175
152.729
152.091
148.983
144.268
138.552
129.697
106.948
112.403
120.834
129.488
135.458
138.675
139.866
138.93
135.89
131.364
125.883
112.465
93.762
102.471
112.078
120.216
125.735
128.735
129.706
128.63
125.673
121.316
116.063
92.3478
81.6711
93.9775
104.621
112.77
117.903
120.588
121.208
119.961
117.024
112.775
107.711
77.1072
70.5659
86.9989
99.7262
107.643
111.957
113.884
113.838
112.329
109.311
105.083
100.174
59.2285
64.2296
88.9789
102.301
108.663
110.442
109.84
108.304
105.814
102.35
98.058
93.2347
61.9314
82.3194
115.123
122.946
120.667
115.756
111.002
106.087
101.347
96.7652
92.0171
87.0869
253.825
237.424
230.736
197.197
161.748
136.34
119.72
108.588
100.304
93.4191
87.5503
82.152
398.282
395.643
389.081
374.182
351.786
322.235
285.361
242.378
192.901
142.487
103.397
141.106
229.662
222.764
217.251
214.006
212.873
216.936
227.323
242.476
259.579
278.301
309.562
394.774
177.807
170.553
164.781
161.538
161.215
165.349
175.986
195.366
227.713
277.045
354.582
540.353
149.838
143.802
138.873
135.72
134.767
136.662
144.655
161.236
192.792
252.095
369.703
648.747
132.413
126.451
121.295
117.538
115.96
116.848
123.4
138.369
168.311
228.347
364.463
714.966
119.969
114.133
108.888
104.845
102.929
103.417
109.023
122.705
150.951
209.583
352.117
776.684
110.368
104.695
99.5356
95.4565
93.3105
93.6278
98.5272
111.115
137.924
194.45
333.488
824.619
102.25
96.8349
91.9179
88.0427
85.9053
86.2633
90.6175
102.255
128.215
184.557
325.927
886.323
94.9503
89.829
85.2769
81.8414
80.1962
80.7652
84.6716
95.2373
119.982
176.286
322.957
954.315
88.2208
83.4223
79.3726
76.6506
75.8102
76.76
80.4275
89.6286
112.118
167.139
318.16
1014.27
82.1884
77.7513
74.4331
72.8826
73.1342
74.596
77.7731
84.9362
103.404
154.338
308.898
1075.54
77.2
73.2252
71.1402
71.1569
72.3413
73.9892
75.7593
79.8602
92.0347
132.595
275.164
1143.98
19.1596
17.2563
16.8117
19.9024
61.362
179.627
265.951
314.561
352.085
376.032
391.638
397.878
53.7906
58.0398
99.1533
119.551
142.184
194.091
223.524
236.093
241.785
243.488
241.541
235.294
105.454
102.556
118.176
133.16
155.26
179.938
190.062
195.277
197.265
195.876
191.146
184.376
136.849
118.107
122.414
133.14
150.661
161.273
166.723
169.15
169.279
166.319
161.467
155.445
142.428
116.219
119.756
129.081
139.764
146.677
150.391
151.948
151.332
148.253
143.561
137.858
129.05
106.449
111.838
120.164
128.807
134.763
137.977
139.173
138.258
135.241
130.736
125.27
111.632
93.2966
101.956
111.489
119.591
125.093
128.09
129.069
128.013
125.081
120.747
115.512
92.0497
81.2416
93.4928
104.072
112.182
117.293
119.975
120.605
119.379
116.471
112.248
107.209
76.6633
70.16
86.5351
99.1948
107.071
111.365
113.292
113.257
111.77
108.785
104.587
99.7072
58.8741
63.8435
88.5096
101.761
108.09
109.86
109.262
107.74
105.276
101.844
97.5867
92.7955
61.6219
81.9611
114.65
122.402
120.103
115.186
110.441
105.552
100.835
96.2845
91.5704
86.6729
253.414
237.236
230.499
196.808
161.278
135.845
119.217
108.094
99.8411
92.977
87.135
81.7664
395.436
392.793
386.244
371.498
349.364
320.11
283.615
241.042
191.983
141.943
103.132
140.815
228.407
221.558
216.073
212.844
211.725
215.82
226.235
241.346
258.476
277.211
308.492
393.626
176.887
169.643
163.856
160.58
160.226
164.322
174.931
194.276
226.564
275.806
353.155
538.336
149.056
143.015
138.06
134.862
133.871
135.705
143.661
160.209
191.711
250.886
368.172
646.102
131.722
125.747
120.565
116.767
115.156
115.995
122.507
137.435
167.304
227.166
362.866
711.829
119.358
113.515
108.25
104.179
102.224
102.677
108.23
121.851
149.995
208.451
350.533
773.153
109.827
104.155
98.9878
94.8886
92.7139
92.9926
97.8366
110.34
137.024
193.328
331.894
820.722
101.765
96.3591
91.4423
87.5578
85.3988
85.7242
90.0215
101.568
127.373
183.451
324.263
882.011
94.507
89.4015
84.8561
81.4175
79.7579
80.305
84.1653
94.6446
119.224
175.228
321.252
949.779
87.8095
83.0305
78.9907
76.2701
75.4239
76.3638
80.005
89.1415
111.476
166.171
316.506
1009.58
81.8037
77.3863
74.0768
72.5321
72.7936
74.2674
77.4393
84.569
102.915
153.554
307.367
1071.09
76.8404
72.8804
70.8009
70.8238
72.0369
73.7213
75.5225
79.6238
91.7242
132.04
273.974
1139.65
371.897
369.898
350.933
298.501
236.663
181.251
142.367
117.928
102.853
92.7669
84.9766
78.6463
187.932
222.287
253.583
253.43
234.524
197.503
161.047
131.338
109.483
94.5989
84.4587
76.8756
106.933
127.633
153.103
172.645
185.623
178.548
158.647
134.08
112.858
96.3727
84.5773
76.0261
77.7117
90.0792
105.951
122.179
136.714
140.764
137.589
126.869
108.82
93.9106
83.1714
75.6927
73.4824
70.3364
70.019
71.1238
72.6919
72.7939
71.8178
72.3431
77.5872
98.7878
164.112
390.216
71.5851
70.2067
71.1481
72.3941
71.574
68.3623
63.3914
61.9662
63.7916
72.741
98.4821
159.278
71.6471
72.0259
72.3217
69.9403
64.2743
56.9727
54.4696
54.7924
56.7177
60.6786
70.8939
91.1
74.0282
71.0744
64.9433
55.2354
49.894
49.8393
51.036
53.0442
54.9459
56.9642
61.49
68.9591
373.379
370.933
351.368
298.111
235.919
180.421
141.653
117.361
102.406
92.3807
84.6452
78.351
188.899
223.333
254.312
253.733
234.52
196.973
160.412
130.736
108.968
94.1717
84.1118
76.5644
107.482
128.299
153.72
173.283
185.832
178.456
158.169
133.566
112.367
95.9326
84.2268
75.7134
78.0955
90.5215
106.393
122.656
137.012
140.893
137.528
126.486
108.385
93.5066
82.8366
75.4215
73.2195
70.1204
69.8414
70.9812
72.6028
72.7329
71.7648
72.2787
77.4896
98.5922
163.626
388.583
71.3149
69.9981
70.9719
72.2731
71.4739
68.2885
63.3101
61.8623
63.6692
72.5781
98.2191
158.727
71.4026
71.8226
72.1778
69.8121
64.1611
56.8541
54.3389
54.6537
56.5756
60.5323
70.7275
90.8477
73.8065
70.8931
64.7851
55.0936
49.7527
49.6913
50.8833
52.8945
54.8089
56.837
61.3729
68.8187
371.956
369.723
350.509
297.822
236.057
180.841
142.171
117.887
102.908
92.8478
85.0839
78.7581
188.164
222.446
253.515
253.162
234.159
197.014
160.652
131.091
109.368
94.5842
84.5095
76.9447
107.142
127.833
153.231
172.718
185.477
178.286
158.281
133.769
112.637
96.2441
84.5734
76.0535
77.9132
90.268
106.106
122.306
136.728
140.686
137.432
126.611
108.608
93.7788
83.1256
75.7006
73.5948
70.4575
70.147
71.2502
72.803
72.8745
71.861
72.3649
77.5867
98.7742
164.064
390.15
71.6691
70.3087
71.247
72.4745
71.6237
68.361
63.3585
61.9219
63.7513
72.7044
98.4367
159.217
71.7061
72.0943
72.3586
69.9397
64.2155
56.8999
54.4165
54.7456
56.6805
60.6458
70.8617
91.0636
74.0305
71.051
64.8809
55.1257
49.8255
49.7811
50.9929
53.0109
54.9201
56.9438
61.4757
68.9483
373.243
370.756
351.222
298.106
236.059
180.628
141.84
117.508
102.515
92.4731
84.7149
78.4083
188.828
223.184
254.128
253.599
234.467
197.086
160.589
130.919
109.127
94.2992
84.1965
76.6369
107.448
128.234
153.629
173.124
185.734
178.444
158.295
133.73
112.535
96.0881
84.3225
75.7918
78.0894
90.5048
106.365
122.581
136.939
140.83
137.522
126.602
108.533
93.6427
82.9292
75.4763
73.2609
70.1293
69.8242
70.9452
72.5621
72.7039
71.7402
72.2446
77.4241
98.4622
163.402
388.074
71.3624
70.0048
70.9637
72.2582
71.4757
68.3218
63.3303
61.8483
63.6192
72.4644
98.0115
158.345
71.4403
71.8379
72.1931
69.8478
64.2289
56.9196
54.3176
54.5959
56.4729
60.3979
70.5341
90.55
73.8554
70.9477
64.8545
55.1874
49.763
49.6571
50.8105
52.7775
54.6655
56.6725
61.1645
68.5195
74.7435
85.6841
97.9946
107.514
112.349
111.495
105.243
97.8704
85.9792
76.9041
69.1898
62.2764
70.5248
79.3691
86.9811
91.0556
92.2348
89.2697
83.7939
77.7818
69.1252
59.9936
49.1611
39.1329
65.9083
72.0319
75.798
77.6093
77.7403
74.9628
70.9786
64.9249
55.6682
44.2825
31.0238
23.2257
61.2661
64.9628
67.0892
68.177
68.2644
65.726
61.0434
53.4874
43.2107
30.9757
18.622
14.0828
54.8869
42.2866
37.8215
38.9866
43.5914
48.9529
52.5208
54.375
55.366
56.9669
60.8061
66.5984
31.1243
25.8889
27.671
33.713
41.5444
48.3581
52.2152
53.551
53.9159
55.0653
58.3599
63.4359
22.4574
19.7586
23.8384
31.2339
39.3831
46.2372
50.2096
51.7448
52.2889
53.3079
56.0229
60.2058
21.7922
17.4848
21.8485
29.0378
36.6939
43.1487
47.1889
49.1149
50.0661
51.1979
53.5208
56.9007
75.0294
86
98.296
107.692
112.423
111.389
105.001
97.518
85.6413
76.6119
68.939
62.0597
70.717
79.5602
87.0716
91.074
92.1685
89.0633
83.5271
77.4813
68.8487
59.737
48.9157
38.9088
66.0239
72.0805
75.7795
77.5505
77.5985
74.7545
70.7411
64.6604
55.4195
44.0386
30.7865
23.0412
61.3143
64.9449
67.0267
68.0905
68.1156
65.536
60.8212
53.2521
42.9891
30.7623
18.4476
13.9436
54.678
42.1062
37.679
38.8484
43.4421
48.7947
52.3811
54.2549
55.2725
56.8893
60.7311
66.4949
30.9385
25.7559
27.5556
33.5856
41.395
48.2001
52.0891
53.4669
53.8677
55.0372
58.326
63.3771
22.3375
19.6664
23.7425
31.1189
39.2479
46.0934
50.0997
51.6822
52.2644
53.3073
56.0234
60.1875
21.707
17.4158
21.7696
28.94
36.5791
43.0272
47.0981
49.0676
50.0552
51.2148
53.544
56.9212
74.8861
85.8118
98.0862
107.529
112.311
111.391
105.115
97.7373
85.8965
76.8682
69.1544
62.21
70.6269
79.4503
87.0058
91.0438
92.1963
89.2098
83.7526
77.7588
69.1129
59.9685
49.0877
39.0188
65.9847
72.075
75.8119
77.6097
77.7343
74.9694
71.0002
64.9353
55.6619
44.2368
30.9255
23.129
61.3289
65.0044
67.1194
68.2045
68.2982
65.7671
61.0736
53.4944
43.1894
30.9161
18.5481
14.014
54.7533
42.1694
37.7565
38.941
43.5593
48.9252
52.5027
54.3597
55.3597
56.969
60.8128
66.6038
31.0099
25.8249
27.6427
33.6936
41.524
48.3326
52.1979
53.5446
53.9235
55.0852
58.3829
63.454
22.4077
19.7351
23.8279
31.2225
39.3635
46.2089
50.189
51.7398
52.2993
53.3318
56.0502
60.2277
21.7827
17.4785
21.8445
29.0284
36.6747
43.1208
47.1675
49.1079
50.073
51.2177
53.5444
56.9214
75.0284
85.9836
98.261
107.651
112.39
111.392
105.049
97.604
85.7175
76.6623
68.9877
62.1369
70.7241
79.5527
87.0615
91.0653
92.1683
89.0891
83.5603
77.5126
68.8731
59.7682
48.9854
39.0195
66.0365
72.087
75.784
77.5535
77.6031
74.7599
70.738
64.6649
55.4355
44.0814
30.872
23.139
61.3297
64.9524
67.0272
68.085
68.0997
65.517
60.8076
53.2587
43.0179
30.8174
18.5156
14.0135
54.8094
42.2131
37.7242
38.8449
43.3719
48.6337
52.2112
54.0701
55.0777
56.6756
60.4695
66.1901
31.055
25.8202
27.5686
33.5516
41.301
48.0418
51.887
53.2488
53.6445
54.802
58.0533
63.0814
22.4145
19.7027
23.7423
31.0792
39.1569
45.9429
49.897
51.4571
52.0338
53.073
55.7637
59.9294
21.7658
17.4425
21.7691
28.9063
36.4978
42.8876
46.904
48.8479
49.8292
50.9923
53.308
56.7034
57.1646
59.637
61.1419
61.9616
61.328
57.5144
51.218
42.4478
31.9449
20.7537
11.2046
7.67259
54.1393
55.9329
56.9466
57.0017
54.5419
49.1155
41.4799
32.2396
22.395
13.1852
6.31707
3.80891
51.7119
52.8926
53.1956
51.7091
47.5075
40.8057
32.5414
23.648
15.2228
8.35052
4.01139
3.04439
49.0739
49.7711
49.065
46.0637
40.5992
33.246
25.0886
17.1732
10.4758
5.64482
2.88797
2.59757
45.9795
46.2547
44.496
40.4372
34.3083
26.9232
19.4197
12.7589
7.62233
4.21228
2.29344
2.23667
42.3404
42.2164
39.7586
35.1644
28.9249
21.983
15.4098
9.95862
5.99985
3.45451
1.96438
1.85798
38.318
37.8635
35.0944
30.4326
24.5144
18.2951
12.6955
8.24784
5.09909
3.05458
1.76648
1.49883
34.1478
33.4871
30.72
26.3392
21.0107
15.6142
10.8925
7.21296
4.601
2.84364
1.63403
1.15237
30.2409
29.4642
26.887
22.9834
18.3506
13.7425
9.72847
6.60087
4.33351
2.73112
1.5287
0.825078
27.2984
26.4028
24.0437
20.6485
16.6627
12.6851
9.13349
6.33053
4.23667
2.68467
1.4249
0.524677
27.491
26.3324
23.9047
20.7159
16.9952
13.1781
9.5618
6.67995
4.47022
2.76323
1.33428
0.263925
48.3203
45.4146
40.7311
35.6921
29.8788
23.4073
16.5517
11.0244
6.88184
3.78796
1.48407
0.280893
28.6549
16.5474
20.1791
26.7363
33.6974
39.6499
43.7484
46.1292
47.5827
49.0092
51.1513
53.8939
25.2554
15.1091
18.4897
24.3915
30.6321
36.0756
40.1399
42.9304
44.9389
46.8287
49.0682
51.5183
21.3844
13.5406
16.8071
22.0901
27.628
32.5651
36.5062
39.5764
42.116
44.5494
47.1061
49.597
18.0574
12.0111
15.1777
19.892
24.7592
29.1847
32.9252
36.132
39.0728
41.9852
44.9169
47.4482
14.9262
10.5359
13.6408
17.8415
22.081
25.9937
29.4667
32.6661
35.8192
39.0416
42.2567
44.6136
12.0429
9.13126
12.2177
15.9689
19.6388
23.0489
26.2006
29.2612
32.4283
35.7418
38.991
41.1279
9.37864
7.79931
10.9141
14.2921
17.4698
20.4103
23.21
26.0302
29.0413
32.2543
35.282
37.2093
6.95799
6.53654
9.71705
12.8182
15.6062
18.1419
20.5935
23.1138
25.846
28.785
31.4749
33.1612
4.77573
5.3351
8.59582
11.556
14.0968
16.337
18.4942
20.7099
23.1088
25.6663
27.9825
29.4143
2.86722
4.15802
7.50815
10.6176
13.1886
15.3053
17.2818
19.2419
21.301
23.4727
25.4494
26.6733
1.36543
3.00354
6.66819
10.292
13.3536
15.859
18.0442
20.0565
22.0224
24.0804
25.8276
27.0216
0.847327
2.58851
7.21175
13.9071
20.3349
25.9338
30.8597
35.4069
39.6253
43.3158
46.1281
47.9596
57.1766
59.6026
61.0743
61.8742
61.177
57.3291
51.0121
42.2458
31.7616
20.5945
11.0912
7.5771
54.1374
55.886
56.8466
56.9072
54.3818
48.9345
41.2962
32.0748
22.2581
13.0849
6.27714
3.82112
51.6866
52.8381
53.103
51.5744
47.3367
40.6303
32.3809
23.5188
15.13
8.29926
4.00336
3.07191
49.0119
49.6909
48.9361
45.8966
40.4177
33.0759
24.9479
17.0718
10.4141
5.61968
2.88836
2.62296
45.8786
46.1334
44.3262
40.2429
34.1165
26.7566
19.2925
12.6748
7.57656
4.19618
2.29394
2.25515
42.2057
42.0524
39.5543
34.9485
28.7249
21.8184
15.29
9.88235
5.95898
3.43831
1.96255
1.87034
38.1557
37.6672
34.8663
30.2037
24.3101
18.1322
12.579
8.17336
5.05727
3.03504
1.76077
1.50608
33.9707
33.2738
30.4827
26.1068
20.8075
15.454
10.7774
7.13748
4.55596
2.81981
1.6246
1.15515
30.0618
29.2481
26.6524
22.7565
18.1524
13.5859
9.61403
6.52362
4.28496
2.70339
1.51646
0.82504
27.122
26.1916
23.8185
20.4298
16.4698
12.5301
9.01838
6.25122
4.18563
2.65472
1.41121
0.523245
27.2973
26.1106
23.6729
20.4902
16.7922
13.0112
9.4363
6.59354
4.41471
2.73072
1.32056
0.262279
47.927
45.005
40.3191
35.2933
29.5157
23.1021
16.3248
10.8801
6.79768
3.74444
1.46923
0.277135
28.5414
16.4902
20.1154
26.657
33.6048
39.5531
43.675
46.0913
47.5776
49.0323
51.1906
53.9412
25.1708
15.0631
18.4402
24.33
30.5605
36.0037
40.0822
42.8977
44.9354
46.8514
49.1112
51.5791
21.3165
13.5051
16.7707
22.0447
27.5751
32.5125
36.4629
39.5504
42.1138
44.5702
47.1511
49.6663
18.0055
11.9851
15.1529
19.8609
24.7224
29.1484
32.8955
36.1143
39.0739
42.008
44.9651
47.535
14.8874
10.5181
13.6262
17.8228
22.0583
25.9716
29.4496
32.6579
35.8262
39.0698
42.3189
44.7198
12.0139
9.12048
12.2116
15.9606
19.6281
23.0391
26.1951
29.2631
32.4433
35.7768
39.071
41.2493
9.35794
7.7942
10.9148
14.2922
17.4692
20.4114
23.2154
26.0424
29.066
32.2979
35.3763
37.3434
6.94202
6.53582
9.72302
12.8249
15.6138
18.1523
20.6087
23.136
25.881
28.8394
31.5789
33.3046
4.76428
5.33757
8.60542
11.5678
14.111
16.3552
18.5184
20.742
23.1548
25.7321
28.0937
29.5634
2.85835
4.16131
7.51992
10.6335
13.2078
15.3304
17.3148
19.2849
21.3595
23.5547
25.5664
26.8278
1.35947
3.00317
6.68084
10.3109
13.379
15.8936
18.0911
20.1171
22.1007
24.1857
25.9653
27.1916
0.842533
2.58187
7.22542
13.934
20.3754
25.9963
30.9545
35.5344
39.7915
43.5417
46.408
48.2847
57.2293
59.6928
61.1928
62.0113
61.375
57.5539
51.2361
42.4398
31.909
20.697
11.1576
7.63879
54.2133
55.9994
57.0062
57.0523
54.583
49.1416
41.4826
32.2192
22.3573
13.1468
6.3061
3.82585
51.7844
52.9571
53.2491
51.748
47.5352
40.817
32.5323
23.6241
15.1946
8.33378
4.01491
3.0658
49.1263
49.824
49.1027
46.0887
40.613
33.2456
25.0743
17.153
10.4601
5.64135
2.89477
2.61588
46.009
46.2899
44.5172
40.4483
34.3104
26.9154
19.4051
12.7452
7.61563
4.21446
2.30004
2.25012
42.3503
42.235
39.7648
35.1636
28.9179
21.9713
15.3971
9.9498
5.99806
3.45788
1.96966
1.86749
38.3146
37.8681
35.0894
30.4227
24.5018
18.2815
12.6849
8.24161
5.09918
3.05723
1.76976
1.50441
34.139
33.4832
30.7089
26.3244
20.996
15.6002
10.8836
7.20775
4.60128
2.84481
1.63514
1.15487
30.2357
29.458
26.8753
22.9684
18.3376
13.7282
9.72255
6.59452
4.33428
2.73012
1.5278
0.825073
27.3008
26.4002
24.0361
20.6377
16.6524
12.6739
9.12787
6.32547
4.23616
2.68272
1.42197
0.523749
27.4977
26.3369
23.9041
20.7119
16.989
13.1697
9.55713
6.6749
4.4692
2.7595
1.33004
0.262713
48.3161
45.4298
40.7399
35.6987
29.875
23.3996
16.5394
11.0178
6.87696
3.78134
1.47845
0.278616
28.6531
16.5484
20.1782
26.7284
33.6801
39.6248
43.7267
46.1173
47.5815
49.0183
51.1644
53.9052
25.2678
15.1138
18.4909
24.3856
30.6174
36.0543
40.118
42.9127
44.9278
46.8234
49.0651
51.512
21.3966
13.5472
16.8103
22.0865
27.6162
32.5466
36.4846
39.5547
42.0962
44.5304
47.0858
49.5708
18.0728
12.0192
15.1829
19.8909
24.7502
29.1689
32.9048
36.1084
39.0472
41.9567
44.8844
47.4065
14.9415
10.5451
13.648
17.8429
22.0749
25.9808
29.4484
32.6429
35.7916
39.0084
42.2172
44.567
12.0582
9.14144
12.2268
15.9727
19.6356
23.0392
26.1853
29.2403
32.4018
35.7089
38.9511
41.0832
9.39283
7.81008
10.9249
14.298
17.4694
20.4039
23.1984
26.013
29.0184
32.2247
35.2468
37.1707
6.96994
6.54757
9.72933
12.8262
15.6085
18.1389
20.5859
23.101
25.8281
28.7609
31.4467
33.1307
4.78576
5.34598
8.60936
11.5661
14.1019
16.3374
18.4908
20.702
23.0967
25.6488
27.9621
29.3923
2.8736
4.16811
7.5228
10.6307
13.1966
15.3095
17.2828
19.239
21.2947
23.4622
25.4367
26.6595
1.36878
3.01106
6.68354
10.3081
13.3664
15.8688
18.051
20.0598
22.0224
24.0773
25.8222
27.0146
0.848973
2.59314
7.22853
13.9329
20.3585
25.9559
30.8782
35.4232
39.6371
43.3263
46.1345
47.9644
57.1832
59.5953
61.0565
61.8485
61.1448
57.3058
51.0063
42.2658
31.8051
20.652
11.1349
7.60503
54.1224
55.8575
56.8114
56.8671
54.3475
48.9181
41.3025
32.1056
22.304
13.1282
6.29314
3.81475
51.6493
52.7955
53.0575
51.5323
47.3087
40.6236
32.3961
23.5515
15.1669
8.32403
4.00743
3.06243
48.9643
49.6413
48.8893
45.8602
40.3987
33.077
24.9661
17.0994
10.4385
5.63139
2.88823
2.6153
45.8289
46.0842
44.2847
40.215
34.1058
26.7625
19.3095
12.6949
7.59073
4.20085
2.29229
2.24927
42.159
42.009
39.521
34.9292
28.7206
21.8262
15.3041
9.89589
5.96666
3.43963
1.96043
1.86598
38.116
37.6322
34.8417
30.1917
24.31
18.1404
12.5899
8.18231
5.06129
3.03488
1.75883
1.50306
33.9395
33.2479
30.4659
26.1004
20.8097
15.4616
10.7857
7.14355
4.55806
2.81917
1.62317
1.15339
30.0394
29.2304
26.642
22.7539
18.1556
13.5927
9.62049
6.528
4.28628
2.70291
1.51573
0.824257
27.108
26.1811
23.8129
20.4296
16.4733
12.5359
9.02381
6.25478
4.18684
2.65468
1.41131
0.523055
27.2906
26.1069
23.671
20.4906
16.7955
13.0164
9.44247
6.59745
4.41671
2.73182
1.32149
0.262467
47.9341
45.0154
40.322
35.2933
29.5208
23.1119
16.3418
10.8916
6.80485
3.7487
1.47153
0.277895
28.6204
16.5154
20.1187
26.6314
33.5347
39.4267
43.4949
45.8838
47.3633
48.8258
50.98
53.7551
25.2378
15.0888
18.4477
24.3123
30.5021
35.8919
39.9205
42.706
44.7367
46.6626
48.9236
51.4163
21.3785
13.5307
16.7814
22.034
27.5279
32.4159
36.3198
39.3778
41.9332
44.3989
46.9845
49.5271
18.0586
12.0094
15.1655
19.8557
24.6854
29.0665
32.7706
35.9613
38.9119
41.8533
44.8111
47.4289
14.932
10.5402
13.6392
17.8214
22.0296
25.903
29.3414
32.5233
35.682
38.9314
42.1831
44.6328
12.0498
9.13943
12.2241
15.9614
19.6053
22.9814
26.1015
29.1447
32.315
35.6517
38.9567
41.1823
9.38561
7.8096
10.9259
14.2938
17.45
20.3615
23.1334
25.9378
28.9513
32.1808
35.2821
37.2902
6.96266
6.54749
9.73205
12.8261
15.5959
18.1069
20.5351
23.0425
25.7781
28.7334
31.4949
33.2581
4.77843
5.34562
8.61222
11.5677
14.0921
16.3109
18.4492
20.6562
23.0614
25.6365
28.0138
29.5174
2.86723
4.16664
7.52446
10.6318
13.1854
15.2832
17.2452
19.2017
21.2716
23.4698
25.4851
26.7768
1.36415
3.00796
6.68357
10.3083
13.3481
15.8345
18.0099
20.0247
22.0055
24.0978
25.8832
27.1367
0.846078
2.58897
7.22787
13.9353
20.3205
25.8828
30.7939
35.347
39.5946
43.365
46.2419
48.1806
)
;

boundaryField
{
    rotor
    {
        lowReCorrection 0;
        type            epsilonWallFunction;
        value           nonuniform List<scalar> 
192
(
19.9446
17.8499
17.2905
20.2813
61.5341
179.743
266.167
314.897
352.566
376.649
392.337
398.619
396.257
393.768
387.39
372.823
350.584
321.338
284.634
241.87
192.566
142.364
103.38
141.138
19.1679
17.2594
16.8242
19.9947
62.2176
180.598
266.518
315.142
352.645
376.621
392.212
398.439
395.948
393.243
386.594
371.73
349.503
320.136
283.573
240.921
191.801
141.765
102.908
140.431
19.2411
17.3295
16.8947
20.0835
62.538
181.537
267.929
316.869
354.651
378.823
394.522
400.767
398.282
395.643
389.081
374.182
351.786
322.235
285.361
242.378
192.901
142.487
103.397
141.106
19.1596
17.2563
16.8117
19.9024
61.362
179.627
265.951
314.561
352.085
376.032
391.638
397.878
395.436
392.793
386.244
371.498
349.364
320.11
283.615
241.042
191.983
141.943
103.132
140.815
19.9446
54.5696
106.316
137.492
142.798
129.321
111.874
92.2226
76.7918
58.9371
61.6894
253.948
140.815
393.626
538.336
646.102
711.829
773.153
820.722
882.011
949.779
1009.58
1071.09
1139.65
19.1679
53.8417
105.723
137.165
142.668
129.253
111.849
92.2855
76.9057
59.0285
61.7429
253.648
141.138
394.789
540.272
648.694
714.954
776.764
824.766
886.518
954.534
1014.5
1075.87
1144.4
19.2411
54.0436
106.114
137.678
143.23
129.697
112.465
92.3478
77.1072
59.2285
61.9314
253.825
140.431
393.001
537.93
645.835
711.765
773.242
820.983
882.436
950.347
1010.27
1071.82
1140.47
19.1596
53.7906
105.454
136.849
142.428
129.05
111.632
92.0497
76.6633
58.8741
61.6219
253.414
141.106
394.774
540.353
648.747
714.966
776.684
824.619
886.323
954.315
1014.27
1075.54
1143.98
)
;
    }
    stator
    {
        lowReCorrection 0;
        type            epsilonWallFunction;
        value           nonuniform List<scalar> 
192
(
48.3203
45.4146
40.7311
35.6921
29.8788
23.4073
16.5517
11.0244
6.88184
3.78796
1.48407
0.280893
0.847327
2.58851
7.21175
13.9071
20.3349
25.9338
30.8597
35.4069
39.6253
43.3158
46.1281
47.9596
47.927
45.005
40.3191
35.2933
29.5157
23.1021
16.3248
10.8801
6.79768
3.74444
1.46923
0.277135
0.842533
2.58187
7.22542
13.934
20.3754
25.9963
30.9545
35.5344
39.7915
43.5417
46.408
48.2847
48.3161
45.4298
40.7399
35.6987
29.875
23.3996
16.5394
11.0178
6.87696
3.78134
1.47845
0.278616
0.848973
2.59314
7.22853
13.9329
20.3585
25.9559
30.8782
35.4232
39.6371
43.3263
46.1345
47.9644
47.9341
45.0154
40.322
35.2933
29.5208
23.1119
16.3418
10.8916
6.80485
3.7487
1.47153
0.277895
0.846078
2.58897
7.22787
13.9353
20.3205
25.8828
30.7939
35.347
39.5946
43.365
46.2419
48.1806
28.6549
25.2554
21.3844
18.0574
14.9262
12.0429
9.37864
6.95799
4.77573
2.86722
1.36543
0.847327
7.67259
3.80891
3.04439
2.59757
2.23667
1.85798
1.49883
1.15237
0.825078
0.524677
0.263925
0.280893
28.5414
25.1708
21.3165
18.0055
14.8874
12.0139
9.35794
6.94202
4.76428
2.85835
1.35947
0.842533
7.5771
3.82112
3.07191
2.62296
2.25515
1.87034
1.50608
1.15515
0.82504
0.523245
0.262279
0.277135
28.6531
25.2678
21.3966
18.0728
14.9415
12.0582
9.39283
6.96994
4.78576
2.8736
1.36878
0.848973
7.63879
3.82585
3.0658
2.61588
2.25012
1.86749
1.50441
1.15487
0.825073
0.523749
0.262713
0.278616
28.6204
25.2378
21.3785
18.0586
14.932
12.0498
9.38561
6.96266
4.77843
2.86723
1.36415
0.846078
7.60503
3.81475
3.06243
2.6153
2.24927
1.86598
1.50306
1.15339
0.824257
0.523055
0.262467
0.277895
)
;
    }
    front
    {
        type            empty;
    }
    back
    {
        type            empty;
    }
}


// ************************************************************************* //
