/*--------------------------------*- C++ -*----------------------------------*\
| =========                 |                                                 |
| \\      /  F ield         | OpenFOAM: The Open Source CFD Toolbox           |
|  \\    /   O peration     | Version:  v1912                                 |
|   \\  /    A nd           | Website:  www.openfoam.com                      |
|    \\/     M anipulation  |                                                 |
\*---------------------------------------------------------------------------*/
FoamFile
{
    version     2.0;
    format      ascii;
    class       volScalarField;
    location    "100";
    object      k;
}
// * * * * * * * * * * * * * * * * * * * * * * * * * * * * * * * * * * * * * //

dimensions      [0 2 -2 0 0 0 0];


internalField   nonuniform List<scalar> 
3072
(
0.105922
0.146952
0.143566
0.158347
0.324564
0.677594
0.888002
0.994121
1.07246
1.12068
1.15176
1.164
0.222332
0.399043
0.497558
0.545044
0.682128
0.922869
1.15876
1.384
1.59322
1.77547
1.92627
2.04014
0.368909
0.690405
0.752376
0.886279
1.11215
1.39154
1.67064
1.91672
2.1183
2.27205
2.37939
2.43186
0.465806
0.901563
1.00008
1.1639
1.41148
1.68441
1.94079
2.15713
2.32628
2.44858
2.52174
2.54698
0.505365
1.00147
1.14819
1.33496
1.58578
1.84414
2.07734
2.26955
2.41501
2.51596
2.56581
2.57866
0.497652
1.00261
1.21611
1.42848
1.67344
1.9167
2.13157
2.30373
2.43086
2.51502
2.55344
2.55906
0.473762
0.979482
1.23224
1.46715
1.70724
1.93594
2.13292
2.29232
2.40794
2.4786
2.50535
2.50235
0.434483
0.933247
1.22742
1.47539
1.71342
1.92711
2.10928
2.24992
2.34833
2.40519
2.42574
2.41733
0.400565
0.854975
1.21843
1.48241
1.71151
1.90025
2.05693
2.17814
2.2625
2.30997
2.32409
2.312
0.350713
0.802497
1.24388
1.51763
1.72309
1.87716
1.99967
2.09622
2.16331
2.19968
2.20645
2.19161
0.376943
0.905766
1.41091
1.66111
1.7973
1.89316
1.96117
2.01929
2.06154
2.08289
2.0808
2.06297
1.01527
1.5772
1.9912
2.05056
2.01512
1.97379
1.96278
1.96176
1.96771
1.9668
1.95478
1.93267
1.15934
1.15433
1.14177
1.1131
1.06883
1.00893
0.931164
0.836126
0.719078
0.588438
0.476281
0.392013
2.11297
2.14725
2.13975
2.09789
2.04348
1.97439
1.88593
1.76974
1.60759
1.31361
0.970066
0.836053
2.44089
2.42217
2.38517
2.3393
2.29085
2.23975
2.18076
2.10155
1.98932
1.78075
1.33992
1.09955
2.5454
2.51998
2.48193
2.43779
2.3947
2.35708
2.32329
2.28606
2.22856
2.11231
1.77016
1.31868
2.56577
2.53323
2.49029
2.44479
2.40516
2.37851
2.36631
2.37235
2.37642
2.34104
2.10677
1.48631
2.53805
2.49879
2.45031
2.40275
2.36599
2.34908
2.35599
2.40116
2.4824
2.53073
2.43255
1.65273
2.47471
2.43086
2.37952
2.33058
2.29569
2.28574
2.31336
2.39551
2.53689
2.68219
2.70918
1.80317
2.38636
2.34004
2.28732
2.23822
2.20494
2.20125
2.24326
2.35505
2.55471
2.80736
2.94355
1.97728
2.28007
2.23214
2.17998
2.1334
2.10477
2.10687
2.15539
2.28589
2.53931
2.8996
3.16156
2.16529
2.15962
2.11228
2.06377
2.02381
2.00374
2.011
2.06131
2.19396
2.47705
2.93483
3.39197
2.34524
2.03086
1.98661
1.94659
1.91953
1.91262
1.92507
1.97227
2.08986
2.36011
2.89531
3.61295
2.5325
1.89982
1.86314
1.83849
1.83245
1.83907
1.85544
1.88909
1.97403
2.18942
2.7074
3.67506
2.73507
0.102846
0.143587
0.140976
0.156812
0.326819
0.679632
0.888628
0.994485
1.0725
1.12055
1.15146
1.16351
0.220253
0.394824
0.494356
0.546004
0.684138
0.925654
1.16147
1.38667
1.59576
1.77773
1.92808
2.04119
0.367507
0.689716
0.752732
0.888516
1.11473
1.39478
1.67363
1.91948
2.12079
2.27428
2.38124
2.43293
0.465017
0.900927
1.00038
1.16568
1.41384
1.68724
1.94362
2.15982
2.32887
2.45105
2.52302
2.54742
0.505057
1.00112
1.14844
1.33656
1.58802
1.84667
2.07988
2.27196
2.41731
2.51811
2.56758
2.58012
0.4975
1.0025
1.21647
1.42985
1.67539
1.91913
2.13488
2.30583
2.43282
2.51688
2.55509
2.56055
0.473742
0.97952
1.23271
1.46829
1.70886
1.9378
2.1355
2.29408
2.40947
2.4799
2.50655
2.50346
0.434642
0.933414
1.22797
1.47632
1.71455
1.92852
2.1108
2.25102
2.34921
2.40594
2.42641
2.41793
0.400942
0.855644
1.21902
1.48307
1.71216
1.90095
2.05757
2.17866
2.26286
2.3102
2.32422
2.31206
0.351049
0.802536
1.24407
1.51761
1.72307
1.8769
1.99956
2.09611
2.16313
2.19938
2.20604
2.19111
0.377144
0.90541
1.40977
1.6595
1.79567
1.89175
1.95993
2.01831
2.06066
2.08196
2.07979
2.06188
1.0145
1.57584
1.98751
2.04592
2.0105
1.96998
1.95956
1.95933
1.96583
1.96504
1.95308
1.931
1.15849
1.15302
1.13995
1.11074
1.06644
1.00626
0.928731
0.833834
0.717092
0.586737
0.474814
0.3907
2.11291
2.1458
2.13697
2.09405
2.03893
1.96931
1.88068
1.76482
1.60301
1.30969
0.96708
0.833508
2.44143
2.42152
2.38339
2.33639
2.28696
2.23514
2.17578
2.09623
1.98384
1.7757
1.3359
1.09633
2.54555
2.5201
2.48115
2.43597
2.39192
2.35356
2.31902
2.28047
2.22276
2.10648
1.7648
1.31476
2.56691
2.53395
2.49024
2.4438
2.40323
2.37567
2.36267
2.36694
2.37011
2.3346
2.10043
1.48187
2.53925
2.49965
2.4506
2.40232
2.36464
2.34691
2.3526
2.3964
2.47631
2.52373
2.42512
1.64774
2.47565
2.43152
2.37978
2.33025
2.29458
2.2838
2.31022
2.39085
2.53061
2.67437
2.70081
1.7977
2.38683
2.34033
2.28732
2.23782
2.20396
2.19954
2.24044
2.35066
2.54839
2.79909
2.93457
1.97128
2.28003
2.23199
2.17966
2.13283
2.10383
2.10544
2.15307
2.28205
2.53337
2.89143
3.15186
2.15908
2.15903
2.11165
2.06309
2.02305
2.00282
2.00984
2.05957
2.19099
2.47193
2.92695
3.3821
2.33884
2.02971
1.98546
1.9455
1.91853
1.91167
1.92409
1.97099
2.08772
2.3561
2.88866
3.6034
2.52629
1.89812
1.86149
1.83697
1.83112
1.83801
1.85452
1.88797
1.97235
2.18648
2.70198
3.66632
2.72896
0.103118
0.14397
0.141364
0.157269
0.327994
0.682062
0.891842
0.998178
1.0766
1.1249
1.15594
1.16804
0.220812
0.395741
0.495571
0.547455
0.686135
0.928544
1.1653
1.39143
1.6013
1.78386
1.93471
2.0483
0.368396
0.69153
0.754769
0.890984
1.11797
1.39908
1.67903
1.92573
2.12764
2.2815
2.38867
2.44057
0.466205
0.903375
1.00316
1.16898
1.41795
1.69235
1.94963
2.1665
2.33597
2.45835
2.53034
2.55475
0.506414
1.00403
1.15178
1.34039
1.59264
1.85216
2.08613
2.27875
2.4244
2.52528
2.57464
2.5871
0.498848
1.00544
1.22007
1.43404
1.68033
1.92486
2.1413
2.31269
2.43991
2.52396
2.56201
2.56728
0.474538
0.981489
1.2364
1.47271
1.71403
1.94374
2.14203
2.30099
2.41655
2.48689
2.51334
2.50997
0.43625
0.938041
1.23188
1.48098
1.72
1.9346
2.11742
2.258
2.35629
2.41292
2.43313
2.42432
0.401968
0.856196
1.22261
1.4878
1.71782
1.90725
2.06434
2.18568
2.26994
2.31715
2.33089
2.31841
0.351721
0.805262
1.24796
1.52264
1.72892
1.88339
2.00641
2.10314
2.17019
2.20629
2.21267
2.19745
0.377858
0.907761
1.41379
1.66481
1.80179
1.89839
1.96687
2.02535
2.0677
2.08883
2.08642
2.06824
1.01474
1.57708
1.99062
2.05106
2.01656
1.97662
1.96651
1.96632
1.97288
1.97199
1.95978
1.93732
1.16311
1.15779
1.1449
1.11565
1.07112
1.01068
0.932645
0.837195
0.719824
0.588719
0.476308
0.39194
2.12055
2.15399
2.14558
2.10295
2.04789
1.97813
1.88904
1.7723
1.60947
1.31492
0.970398
0.835991
2.44923
2.42971
2.392
2.34542
2.29628
2.24453
2.18495
2.10487
1.9915
1.78227
1.34075
1.09959
2.55295
2.52772
2.48911
2.44433
2.40065
2.3625
2.32793
2.28914
2.2309
2.11386
1.77082
1.31867
2.5738
2.5409
2.49739
2.4513
2.41112
2.3839
2.37104
2.37525
2.37834
2.34249
2.10739
1.48625
2.54579
2.50603
2.45699
2.40881
2.37142
2.35395
2.36006
2.40428
2.48457
2.532
2.4329
1.65255
2.48185
2.43749
2.38557
2.33601
2.30045
2.28992
2.3168
2.39813
2.53866
2.68306
2.70931
1.80292
2.39286
2.346
2.29271
2.24301
2.20912
2.20485
2.2462
2.35725
2.55623
2.80808
2.94355
1.97697
2.28595
2.23747
2.18478
2.13764
2.10844
2.11007
2.15799
2.28777
2.54053
2.90022
3.16149
2.16497
2.16494
2.11705
2.06808
2.02764
2.00705
2.01393
2.06369
2.19566
2.47806
2.93541
3.39193
2.34491
2.03562
1.99089
1.95049
1.92306
1.91574
1.92774
1.97437
2.09128
2.36084
2.89573
3.61267
2.53205
1.904
1.86697
1.84202
1.83568
1.84182
1.85753
1.89063
1.97492
2.18974
2.70739
3.67455
2.73446
0.102815
0.143551
0.1409
0.156348
0.323781
0.67716
0.887385
0.993288
1.07138
1.1194
1.15036
1.16246
0.220115
0.39375
0.493482
0.54511
0.681946
0.922842
1.15852
1.38347
1.5924
1.77439
1.92487
2.03816
0.366911
0.688664
0.751092
0.885815
1.11141
1.39103
1.66989
1.91574
2.11716
2.27071
2.37769
2.42938
0.464365
0.899455
0.998272
1.16273
1.4105
1.68361
1.93996
2.15626
2.32543
2.44764
2.51947
2.54371
0.50447
0.999917
1.14646
1.33367
1.58477
1.8433
2.07654
2.26874
2.41417
2.51494
2.56419
2.57656
0.496955
1.00149
1.21464
1.4272
1.67239
1.91578
2.13069
2.30284
2.42997
2.51392
2.55195
2.55723
0.473117
0.978488
1.23097
1.46589
1.70607
1.93483
2.13185
2.29126
2.40681
2.47724
2.50378
2.5005
0.433992
0.932449
1.22626
1.47408
1.71204
1.9258
2.10795
2.24847
2.34677
2.4035
2.4239
2.4153
0.400139
0.854462
1.21736
1.481
1.70989
1.89852
2.05511
2.17626
2.26054
2.30793
2.32195
2.30975
0.350462
0.801879
1.24268
1.51589
1.72111
1.87485
1.99736
2.09389
2.16097
2.19729
2.20401
2.1891
0.376658
0.905067
1.40906
1.65855
1.79446
1.89021
1.9582
2.01644
2.05877
2.08014
2.07805
2.06019
1.01373
1.5756
1.98792
2.04635
2.01073
1.96954
1.9588
1.95819
1.96442
1.96361
1.95169
1.92966
1.15755
1.15219
1.13931
1.11033
1.06621
1.00624
0.928854
0.834122
0.717548
0.58722
0.475484
0.391393
2.11018
2.14337
2.13486
2.09216
2.03734
1.96804
1.8797
1.76389
1.60251
1.30994
0.967749
0.834359
2.43792
2.41808
2.38005
2.33322
2.28403
2.23243
2.17321
2.09417
1.98237
1.7748
1.33585
1.09685
2.54171
2.51614
2.47713
2.43193
2.38783
2.34936
2.31503
2.27764
2.2205
2.10494
1.76436
1.31509
2.56309
2.52988
2.48596
2.43933
2.39853
2.37073
2.35786
2.36334
2.36744
2.33238
2.09951
1.48192
2.53566
2.49576
2.4464
2.39781
2.35982
2.34192
2.34765
2.39188
2.4724
2.52084
2.42377
1.64758
2.47243
2.42801
2.37594
2.32605
2.29
2.27898
2.30527
2.38603
2.52624
2.67112
2.69903
1.79728
2.38402
2.33726
2.28395
2.2341
2.19987
2.19513
2.23575
2.34586
2.54384
2.7953
2.93234
1.97061
2.2776
2.22935
2.17677
2.12962
2.10024
2.10155
2.1488
2.27747
2.5287
2.8872
3.14928
2.15818
2.15698
2.10943
2.06064
2.02031
1.99973
2.0065
2.05586
2.1869
2.46739
2.92251
3.37925
2.33772
2.02801
1.98363
1.94344
1.91622
1.90915
1.92133
1.96797
2.08437
2.35212
2.88425
3.60059
2.52506
1.89676
1.85998
1.83524
1.82922
1.83592
1.85243
1.88587
1.97006
2.18357
2.69802
3.66369
2.72758
2.99761
2.98269
2.86436
2.63162
2.36887
2.14286
1.99801
1.92652
1.88747
1.86099
1.83486
1.80441
2.6228
2.64357
2.64263
2.57749
2.42649
2.22436
2.03305
1.90262
1.81944
1.76516
1.72352
1.68545
2.23806
2.27033
2.29706
2.31014
2.27384
2.17231
2.00683
1.86385
1.7541
1.67623
1.62253
1.58002
1.97881
2.02037
2.0525
2.06284
2.0464
2.00779
1.91207
1.7734
1.66591
1.58795
1.53917
1.51166
1.77267
1.75142
1.75129
1.76804
1.7837
1.7876
1.79484
1.83814
1.97745
2.36204
3.22981
3.16946
1.66126
1.66309
1.69031
1.71705
1.71135
1.68828
1.67463
1.69884
1.78776
2.01089
2.55281
2.66328
1.57563
1.6012
1.63695
1.62746
1.58559
1.57085
1.58849
1.63469
1.70179
1.80726
2.07792
2.21483
1.53214
1.5331
1.50054
1.46128
1.47152
1.51999
1.58499
1.64202
1.68301
1.72401
1.8382
1.93103
3.00091
2.98298
2.86197
2.62715
2.36285
2.13624
1.99301
1.92271
1.88456
1.85852
1.83254
1.80218
2.62676
2.64602
2.64331
2.57619
2.42215
2.21816
2.02669
1.89733
1.81529
1.76175
1.72046
1.68259
2.24172
2.27323
2.29891
2.31048
2.27251
2.16752
2.00066
1.85797
1.74891
1.67185
1.61869
1.57667
1.98176
2.02273
2.05412
2.06292
2.0454
2.00542
1.90651
1.76736
1.66034
1.5831
1.53503
1.50843
1.77045
1.74929
1.74933
1.76648
1.7824
1.78638
1.79343
1.83634
1.97487
2.35805
3.22331
3.16349
1.65857
1.66058
1.68816
1.7153
1.70963
1.68649
1.67249
1.69647
1.78509
2.0076
2.5483
2.65884
1.57266
1.59866
1.63477
1.62528
1.58318
1.56828
1.5858
1.63197
1.69927
1.8048
2.07517
2.21204
1.52929
1.53033
1.49769
1.45838
1.46858
1.51701
1.58217
1.63969
1.68126
1.72264
1.83705
1.9298
2.99634
2.98033
2.86131
2.62867
2.36675
2.14196
1.99953
1.9294
1.89129
1.86519
1.83904
1.80841
2.62284
2.6431
2.64155
2.57584
2.42406
2.22191
2.03195
1.90333
1.82158
1.76808
1.72673
1.68869
2.23903
2.27105
2.29742
2.30985
2.27296
2.17027
2.00523
1.86343
1.75478
1.67786
1.62475
1.58248
1.98046
2.02165
2.05335
2.06296
2.04611
2.00699
1.9104
1.77244
1.66593
1.58884
1.5408
1.51326
1.77633
1.75475
1.75439
1.77068
1.78578
1.78846
1.7954
1.83814
1.97706
2.36152
3.229
3.16837
1.66431
1.66599
1.69282
1.71868
1.71222
1.68821
1.67414
1.69829
1.78727
2.01046
2.55228
2.66255
1.578
1.60337
1.63816
1.62789
1.58514
1.5702
1.5878
1.63415
1.70164
1.80731
2.07807
2.21484
1.5332
1.53335
1.50016
1.46034
1.47071
1.51942
1.58472
1.64216
1.68346
1.72468
1.83909
1.93183
2.9994
2.98168
2.86151
2.62758
2.36383
2.13726
1.99326
1.92241
1.88383
1.85759
1.83158
1.8012
2.62591
2.64513
2.64266
2.57607
2.42293
2.21969
2.02814
1.89812
1.81548
1.76155
1.72008
1.68205
2.24165
2.27314
2.29879
2.31045
2.27288
2.16893
2.00238
1.85937
1.74996
1.67244
1.61894
1.57652
1.98243
2.02333
2.05458
2.06338
2.04604
2.00643
1.90837
1.76912
1.66175
1.58406
1.53543
1.50842
1.7694
1.74804
1.74791
1.76489
1.78095
1.78527
1.79235
1.83515
1.97308
2.35521
3.2203
3.16156
1.65781
1.65965
1.68703
1.71438
1.70911
1.68645
1.67214
1.69568
1.7835
2.00507
2.54485
2.65629
1.57228
1.59802
1.63445
1.62533
1.58369
1.56826
1.58544
1.6308
1.69714
1.80206
2.07153
2.20881
1.52943
1.53086
1.49856
1.45928
1.46902
1.51653
1.58059
1.63709
1.67819
1.71929
1.83313
1.92599
1.82008
1.8456
1.85506
1.83893
1.79408
1.72668
1.63866
1.53582
1.47732
1.43038
1.37946
1.33442
1.66117
1.66975
1.66212
1.63129
1.57857
1.51544
1.45122
1.39386
1.33552
1.23894
1.09714
0.95139
1.52145
1.51816
1.50216
1.47055
1.42903
1.38894
1.34765
1.28748
1.18306
1.01478
0.784288
0.593004
1.41065
1.40329
1.38846
1.36658
1.34269
1.31363
1.25984
1.16511
1.01433
0.798595
0.513658
0.317969
1.30661
1.22812
1.22235
1.32898
1.47172
1.59077
1.65703
1.68016
1.67937
1.68742
1.74037
1.78636
0.88921
0.93353
1.07294
1.2736
1.47052
1.60521
1.66129
1.66105
1.62769
1.60999
1.62477
1.64374
0.553235
0.789942
1.00044
1.22922
1.43501
1.56938
1.61953
1.61306
1.56804
1.53016
1.51889
1.51802
0.368377
0.718347
0.947749
1.17561
1.37537
1.50417
1.55208
1.54661
1.50057
1.45461
1.42894
1.41537
1.82081
1.8459
1.85465
1.8372
1.79117
1.72228
1.63235
1.53036
1.47267
1.42643
1.37582
1.33102
1.66023
1.66847
1.66004
1.62814
1.57439
1.51029
1.44545
1.3894
1.33127
1.2348
1.09281
0.946972
1.51924
1.51581
1.49909
1.46665
1.42453
1.38414
1.34283
1.28337
1.17884
1.01043
0.779544
0.588635
1.40804
1.40048
1.38503
1.36266
1.33857
1.30936
1.25555
1.16119
1.01036
0.794652
0.509683
0.314238
1.30305
1.22463
1.21918
1.32599
1.46876
1.58834
1.65543
1.67911
1.67895
1.68755
1.74056
1.78648
0.884846
0.93033
1.07004
1.27067
1.46765
1.60318
1.66059
1.66138
1.62858
1.61141
1.62631
1.64527
0.549632
0.787434
0.997868
1.22654
1.4325
1.5678
1.61889
1.61363
1.56967
1.53251
1.52149
1.52059
0.366861
0.716387
0.945537
1.17329
1.37325
1.503
1.55175
1.54742
1.5026
1.45747
1.43213
1.41861
1.82106
1.84632
1.85534
1.83864
1.79351
1.72583
1.63752
1.53604
1.47831
1.43158
1.38012
1.33391
1.66179
1.67019
1.66213
1.631
1.57825
1.51525
1.45142
1.39513
1.33664
1.23942
1.09637
0.949247
1.52184
1.51859
1.50229
1.47063
1.42934
1.38965
1.34873
1.28881
1.18379
1.01455
0.782674
0.590683
1.41134
1.40397
1.38897
1.36721
1.34363
1.31481
1.26102
1.16611
1.01463
0.798081
0.512299
0.316036
1.30476
1.22631
1.22132
1.32856
1.47158
1.59091
1.65743
1.68088
1.68042
1.68877
1.74179
1.78763
0.886531
0.932205
1.07252
1.27358
1.47062
1.60555
1.66189
1.66209
1.62919
1.6118
1.62662
1.6454
0.551213
0.789338
1.00036
1.22933
1.4352
1.56982
1.62022
1.6142
1.56968
1.53213
1.5209
1.51984
0.367936
0.718183
0.94782
1.17575
1.37555
1.50459
1.55275
1.54768
1.50214
1.45652
1.43089
1.41714
1.82188
1.84682
1.85543
1.83805
1.79232
1.72387
1.63433
1.53155
1.47323
1.42657
1.3761
1.33198
1.66167
1.66972
1.66115
1.62937
1.57581
1.51178
1.44661
1.38959
1.33127
1.23501
1.09382
0.948994
1.52084
1.5172
1.50036
1.46792
1.42568
1.38493
1.34308
1.28313
1.17882
1.01092
0.780963
0.590656
1.40958
1.4018
1.38615
1.36357
1.3391
1.30947
1.25537
1.16098
1.01053
0.795301
0.510792
0.315713
1.30505
1.22646
1.22022
1.32602
1.46775
1.58597
1.65182
1.67519
1.67504
1.68359
1.7364
1.78336
0.887364
0.931861
1.07061
1.27026
1.46619
1.60017
1.6561
1.65643
1.62416
1.60716
1.62244
1.64267
0.551577
0.788532
0.998245
1.22611
1.43095
1.56463
1.61464
1.60876
1.56506
1.52858
1.51845
1.51875
0.367732
0.717225
0.945928
1.17299
1.37183
1.49987
1.54757
1.54256
1.49791
1.45369
1.42939
1.41675
1.33493
1.32956
1.32078
1.30857
1.28612
1.23974
1.15465
1.0242
0.844331
0.619958
0.352548
0.129284
1.29206
1.29066
1.2843
1.26656
1.22593
1.1504
1.03318
0.876568
0.685983
0.476515
0.257235
0.0801153
1.2703
1.26855
1.25407
1.21932
1.15332
1.04878
0.907277
0.737909
0.553424
0.373549
0.207884
0.0698249
1.25183
1.24488
1.21722
1.16195
1.07152
0.944777
0.789901
0.62059
0.453265
0.305048
0.179519
0.06424
1.22432
1.21074
1.16953
1.09588
0.986906
0.847107
0.689314
0.52923
0.382515
0.26005
0.159898
0.0593948
1.18098
1.16182
1.11007
1.02349
0.903784
0.759967
0.60729
0.460911
0.333115
0.229047
0.144254
0.0536225
1.11832
1.09602
1.0383
0.945593
0.823183
0.682888
0.540351
0.408789
0.296687
0.205385
0.130057
0.0474578
1.03491
1.01208
0.953334
0.861237
0.74321
0.612065
0.482412
0.365353
0.266304
0.184461
0.115524
0.0407088
0.929506
0.908307
0.852949
0.767362
0.659596
0.541785
0.426585
0.323684
0.236287
0.162667
0.0990336
0.0333083
0.797596
0.779409
0.731056
0.657036
0.564849
0.464076
0.3651
0.276746
0.201225
0.136392
0.0788187
0.0252045
0.619266
0.605125
0.567212
0.510024
0.44075
0.362439
0.284097
0.213222
0.152516
0.0998711
0.0514899
0.0163509
0.280448
0.269341
0.250465
0.229347
0.203853
0.173434
0.138064
0.105337
0.0769555
0.0517762
0.02787
0.00927515
0.303627
0.674239
0.896207
1.11163
1.30019
1.42403
1.47307
1.47335
1.4339
1.3897
1.35983
1.34195
0.285145
0.633191
0.840747
1.04062
1.2162
1.33592
1.38786
1.39619
1.37021
1.33597
1.31123
1.29642
0.261101
0.589111
0.781392
0.965365
1.12719
1.24284
1.29978
1.31725
1.30793
1.28908
1.27596
1.26941
0.238246
0.542005
0.719
0.887761
1.03564
1.1466
1.20922
1.23705
1.24402
1.24255
1.24411
1.24715
0.214269
0.491769
0.654499
0.809067
0.943432
1.04799
1.1144
1.15265
1.17464
1.19058
1.20556
1.21679
0.189429
0.438557
0.588356
0.729857
0.851628
0.948071
1.01586
1.0618
1.09646
1.12686
1.15316
1.17105
0.163498
0.382209
0.520478
0.649923
0.75996
0.848036
0.914934
0.965875
1.00904
1.04941
1.08348
1.10637
0.136584
0.322466
0.450007
0.568106
0.667333
0.747198
0.811279
0.863977
0.911738
0.957214
0.995281
1.02145
0.108315
0.258672
0.374964
0.481918
0.571206
0.642985
0.702849
0.754522
0.803322
0.849062
0.887547
0.91528
0.0785853
0.189851
0.291529
0.386177
0.465882
0.529687
0.584376
0.632875
0.67851
0.720719
0.756154
0.78365
0.0489753
0.11099
0.189513
0.269137
0.337722
0.392001
0.438738
0.480331
0.51843
0.553582
0.583475
0.607326
0.0192658
0.0400683
0.0785382
0.121935
0.157009
0.184506
0.207126
0.227059
0.24483
0.26016
0.271497
0.278786
1.33232
1.32679
1.31755
1.30499
1.28233
1.23574
1.15071
1.02059
0.840897
0.616935
0.350341
0.128174
1.28969
1.28811
1.2812
1.26306
1.22221
1.14654
1.02952
0.873367
0.683264
0.474584
0.256602
0.0802613
1.26798
1.26594
1.25078
1.21564
1.14946
1.04495
0.903839
0.735119
0.551396
0.372515
0.208052
0.0702382
1.2493
1.2419
1.21351
1.15789
1.0674
0.940882
0.786598
0.618114
0.451733
0.304525
0.179907
0.0646398
1.22138
1.20722
1.16528
1.09135
0.982451
0.843072
0.686042
0.526918
0.381227
0.259718
0.160279
0.0597068
1.1776
1.15775
1.10528
1.01849
0.899002
0.755768
0.603976
0.458627
0.331868
0.228699
0.144524
0.0538401
1.11459
1.0915
1.03311
0.940265
0.818169
0.678569
0.536978
0.406462
0.295367
0.204917
0.130173
0.0475924
1.03104
1.00735
0.94799
0.855794
0.738137
0.607736
0.479032
0.362986
0.264887
0.183844
0.115485
0.0407554
0.925744
0.903657
0.84775
0.762096
0.654692
0.537613
0.423308
0.321352
0.234824
0.161938
0.0988742
0.03329
0.794179
0.775177
0.726362
0.652284
0.560406
0.460279
0.362105
0.274584
0.199828
0.135635
0.078598
0.0251419
0.61651
0.601712
0.56345
0.506253
0.437155
0.359351
0.281657
0.211457
0.151368
0.099224
0.0512928
0.0162718
0.278903
0.267707
0.248778
0.227658
0.20223
0.171955
0.136829
0.104435
0.0763388
0.0513873
0.0276889
0.00919643
0.302827
0.67265
0.894346
1.10969
1.29846
1.42322
1.47304
1.47424
1.43604
1.39269
1.36322
1.34548
0.284521
0.631875
0.839222
1.03905
1.21483
1.33538
1.38805
1.39712
1.37227
1.33885
1.31452
1.29993
0.260553
0.588036
0.780186
0.964154
1.12615
1.24248
1.30014
1.3182
1.30981
1.29174
1.27915
1.2728
0.237803
0.54115
0.718085
0.886878
1.03491
1.1464
1.20965
1.238
1.24565
1.24502
1.24737
1.25061
0.213903
0.491112
0.653843
0.808479
0.943002
1.04791
1.11479
1.15349
1.17607
1.19281
1.20852
1.22008
0.189139
0.438072
0.58792
0.729516
0.851437
0.948133
1.0163
1.06264
1.09786
1.129
1.15603
1.17436
0.163264
0.381861
0.520219
0.649779
0.759963
0.848262
0.915463
0.96674
1.01038
1.05152
1.08638
1.10977
0.136388
0.322216
0.449879
0.568109
0.667475
0.747537
0.811866
0.864854
0.913015
0.959357
0.998189
1.02489
0.108136
0.258477
0.374918
0.482018
0.571431
0.643376
0.70346
0.755399
0.804593
0.851166
0.890376
0.918623
0.0784309
0.189657
0.291518
0.386317
0.46613
0.530055
0.584955
0.633734
0.679792
0.722683
0.758757
0.786726
0.0488185
0.110758
0.189492
0.26927
0.337929
0.392314
0.43927
0.481174
0.519573
0.555216
0.585586
0.60987
0.0191862
0.0400087
0.0786516
0.122106
0.157222
0.184804
0.207559
0.227617
0.245535
0.261087
0.272636
0.280191
1.33595
1.3306
1.32171
1.30963
1.2873
1.2409
1.15561
1.0248
0.844313
0.619468
0.352
0.128841
1.29332
1.29196
1.28543
1.2677
1.22704
1.15134
1.03383
0.87684
0.68585
0.476288
0.257404
0.0803308
1.27154
1.26986
1.25514
1.22033
1.15421
1.04945
0.907654
0.738006
0.553358
0.373635
0.208366
0.0701459
1.25288
1.24603
1.21811
1.16273
1.07216
0.945199
0.790097
0.620644
0.453346
0.305342
0.180049
0.0645304
1.22511
1.21164
1.17018
1.0964
0.987285
0.847327
0.689405
0.529311
0.382711
0.260429
0.16039
0.0596226
1.18151
1.16246
1.11046
1.02375
0.90394
0.760034
0.607326
0.461008
0.333361
0.229415
0.144663
0.0537953
1.11868
1.09642
1.03849
0.945654
0.823175
0.682841
0.540352
0.40887
0.296922
0.20568
0.130362
0.0475662
1.03518
1.01232
0.953382
0.861162
0.7431
0.611941
0.482381
0.365392
0.266484
0.184654
0.115714
0.0407588
0.929799
0.908461
0.852938
0.767231
0.659458
0.54159
0.426559
0.323632
0.236428
0.162737
0.0991166
0.0333009
0.797904
0.779555
0.731056
0.656925
0.564707
0.463898
0.365023
0.276681
0.201263
0.136382
0.0788047
0.0251658
0.619572
0.605273
0.567237
0.509983
0.440643
0.362295
0.284
0.21314
0.152479
0.0997957
0.0514166
0.0162932
0.280495
0.269385
0.250502
0.229369
0.203833
0.173388
0.137976
0.10528
0.0769052
0.0517043
0.0277901
0.00922031
0.303625
0.67428
0.896358
1.11178
1.30035
1.42439
1.47365
1.47424
1.43526
1.39136
1.36152
1.34348
0.285248
0.633352
0.840946
1.04078
1.21634
1.33621
1.38832
1.39687
1.37126
1.33726
1.31251
1.29754
0.261212
0.589336
0.781632
0.96555
1.12732
1.24306
1.30012
1.31773
1.30866
1.28996
1.27679
1.27008
0.238396
0.542276
0.719277
0.887973
1.03578
1.14676
1.20945
1.23736
1.24445
1.24306
1.24452
1.24743
0.214432
0.492074
0.654811
0.809308
0.943587
1.04811
1.11453
1.15283
1.17489
1.19081
1.20567
1.2168
0.18961
0.438886
0.588695
0.730125
0.851799
0.948183
1.01595
1.06189
1.09656
1.12689
1.15308
1.1709
0.16368
0.382546
0.520835
0.650212
0.760149
0.848149
0.915004
0.965903
1.00903
1.04933
1.08331
1.10616
0.13676
0.322793
0.450368
0.568409
0.667537
0.747322
0.811349
0.863986
0.911702
0.957099
0.9951
1.02123
0.10847
0.258966
0.37531
0.482226
0.571419
0.643124
0.702932
0.754539
0.803285
0.848957
0.887391
0.915093
0.0787195
0.19008
0.291836
0.386472
0.466098
0.529846
0.584473
0.632917
0.678493
0.720648
0.756045
0.783517
0.0490623
0.111114
0.189741
0.269401
0.337922
0.392153
0.438839
0.480386
0.518445
0.553559
0.583421
0.607255
0.0192879
0.0401277
0.0786736
0.122097
0.15714
0.184618
0.207216
0.227137
0.24489
0.260208
0.271528
0.278812
1.3336
1.32779
1.31823
1.30533
1.28232
1.23553
1.15048
1.02058
0.841302
0.617612
0.350901
0.128508
1.29054
1.28863
1.28139
1.26297
1.22193
1.14626
1.02942
0.873569
0.683774
0.475107
0.256703
0.0801803
1.26839
1.26603
1.25063
1.21534
1.14913
1.04476
0.90389
0.735444
0.551859
0.372808
0.207948
0.0700983
1.24936
1.24173
1.2132
1.15755
1.06715
0.940817
0.786768
0.618461
0.452069
0.304635
0.179746
0.064518
1.22124
1.20692
1.16495
1.09108
0.982319
0.843133
0.68628
0.52723
0.381441
0.25972
0.160109
0.0596074
1.17735
1.15743
1.105
1.01833
0.898996
0.755927
0.604243
0.458892
0.332
0.228656
0.14437
0.0537597
1.11432
1.09123
1.03292
0.940211
0.818265
0.678793
0.537252
0.40669
0.295459
0.204868
0.130049
0.0475332
1.03079
1.00714
0.94789
0.855829
0.7383
0.607992
0.4793
0.363191
0.264965
0.183812
0.115399
0.0407168
0.925557
0.903523
0.847723
0.762188
0.654883
0.537874
0.423562
0.321544
0.234906
0.161935
0.0988302
0.033271
0.794054
0.775107
0.726385
0.652395
0.56059
0.460517
0.362339
0.274767
0.199923
0.135665
0.0785928
0.025138
0.616447
0.601693
0.563508
0.506338
0.437296
0.359539
0.281862
0.211631
0.151474
0.0992831
0.0513183
0.0162804
0.278934
0.267745
0.248792
0.227656
0.202246
0.171997
0.136915
0.104505
0.07639
0.0514247
0.0277157
0.00921144
0.303359
0.673428
0.894834
1.10956
1.29724
1.42021
1.46891
1.46948
1.43135
1.38895
1.36058
1.34357
0.285009
0.632677
0.839812
1.03909
1.21383
1.33258
1.38405
1.39249
1.36764
1.33515
1.3119
1.29795
0.261039
0.588859
0.780846
0.964324
1.12537
1.23996
1.29629
1.31373
1.3053
1.28824
1.27659
1.27082
0.238251
0.541965
0.718775
0.887132
1.0343
1.14416
1.20602
1.23367
1.24132
1.24221
1.24501
1.24867
0.214311
0.491885
0.65452
0.808765
0.942464
1.04599
1.11138
1.14921
1.17175
1.18959
1.20625
1.21828
0.189498
0.438772
0.588548
0.7298
0.850966
0.946447
1.01318
1.05873
1.09391
1.12593
1.15388
1.17264
0.163571
0.382466
0.520771
0.650028
0.759527
0.846736
0.912702
0.963216
1.00679
1.0487
1.0843
1.10806
0.136645
0.322715
0.450335
0.568297
0.667041
0.746133
0.8094
0.861707
0.909779
0.956817
0.996179
1.02317
0.108342
0.25887
0.375268
0.482131
0.57097
0.642063
0.701242
0.752628
0.801771
0.84892
0.888472
0.916925
0.0785866
0.189955
0.291761
0.386358
0.46563
0.528825
0.582964
0.631382
0.677512
0.720762
0.757051
0.785138
0.0489383
0.110972
0.189634
0.269303
0.337408
0.391214
0.437698
0.479436
0.517851
0.553721
0.584191
0.608601
0.0192412
0.0400772
0.0786584
0.122086
0.156908
0.184239
0.20683
0.226823
0.244746
0.26041
0.271986
0.279693
)
;

boundaryField
{
    rotor
    {
        type            kqRWallFunction;
        value           nonuniform List<scalar> 
192
(
0.105922
0.146952
0.143566
0.158347
0.324564
0.677594
0.888002
0.994121
1.07246
1.12068
1.15176
1.164
1.15934
1.15433
1.14177
1.1131
1.06883
1.00893
0.931164
0.836126
0.719078
0.588438
0.476281
0.392013
0.102846
0.143587
0.140976
0.156812
0.326819
0.679632
0.888628
0.994485
1.0725
1.12055
1.15146
1.16351
1.15849
1.15302
1.13995
1.11074
1.06644
1.00626
0.928731
0.833834
0.717092
0.586737
0.474814
0.3907
0.103118
0.14397
0.141364
0.157269
0.327994
0.682062
0.891842
0.998178
1.0766
1.1249
1.15594
1.16804
1.16311
1.15779
1.1449
1.11565
1.07112
1.01068
0.932645
0.837195
0.719824
0.588719
0.476308
0.39194
0.102815
0.143551
0.1409
0.156348
0.323781
0.67716
0.887385
0.993288
1.07138
1.1194
1.15036
1.16246
1.15755
1.15219
1.13931
1.11033
1.06621
1.00624
0.928854
0.834122
0.717548
0.58722
0.475484
0.391393
0.105922
0.222332
0.368909
0.465806
0.505365
0.497652
0.473762
0.434483
0.400565
0.350713
0.376943
1.01527
0.391393
0.834359
1.09685
1.31509
1.48192
1.64758
1.79728
1.97061
2.15818
2.33772
2.52506
2.72758
0.102846
0.220253
0.367507
0.465017
0.505057
0.4975
0.473742
0.434642
0.400942
0.351049
0.377144
1.0145
0.392013
0.836053
1.09955
1.31868
1.48631
1.65273
1.80317
1.97728
2.16529
2.34524
2.5325
2.73507
0.103118
0.220812
0.368396
0.466205
0.506414
0.498848
0.474538
0.43625
0.401968
0.351721
0.377858
1.01474
0.3907
0.833508
1.09633
1.31476
1.48187
1.64774
1.7977
1.97128
2.15908
2.33884
2.52629
2.72896
0.102815
0.220115
0.366911
0.464365
0.50447
0.496955
0.473117
0.433992
0.400139
0.350462
0.376658
1.01373
0.39194
0.835991
1.09959
1.31867
1.48625
1.65255
1.80292
1.97697
2.16497
2.34491
2.53205
2.73446
)
;
    }
    stator
    {
        type            kqRWallFunction;
        value           nonuniform List<scalar> 
192
(
0.280448
0.269341
0.250465
0.229347
0.203853
0.173434
0.138064
0.105337
0.0769555
0.0517762
0.02787
0.00927515
0.0192658
0.0400683
0.0785382
0.121935
0.157009
0.184506
0.207126
0.227059
0.24483
0.26016
0.271497
0.278786
0.278903
0.267707
0.248778
0.227658
0.20223
0.171955
0.136829
0.104435
0.0763388
0.0513873
0.0276889
0.00919643
0.0191862
0.0400087
0.0786516
0.122106
0.157222
0.184804
0.207559
0.227617
0.245535
0.261087
0.272636
0.280191
0.280495
0.269385
0.250502
0.229369
0.203833
0.173388
0.137976
0.10528
0.0769052
0.0517043
0.0277901
0.00922031
0.0192879
0.0401277
0.0786736
0.122097
0.15714
0.184618
0.207216
0.227137
0.24489
0.260208
0.271528
0.278812
0.278934
0.267745
0.248792
0.227656
0.202246
0.171997
0.136915
0.104505
0.07639
0.0514247
0.0277157
0.00921144
0.0192412
0.0400772
0.0786584
0.122086
0.156908
0.184239
0.20683
0.226823
0.244746
0.26041
0.271986
0.279693
0.303627
0.285145
0.261101
0.238246
0.214269
0.189429
0.163498
0.136584
0.108315
0.0785853
0.0489753
0.0192658
0.129284
0.0801153
0.0698249
0.06424
0.0593948
0.0536225
0.0474578
0.0407088
0.0333083
0.0252045
0.0163509
0.00927515
0.302827
0.284521
0.260553
0.237803
0.213903
0.189139
0.163264
0.136388
0.108136
0.0784309
0.0488185
0.0191862
0.128174
0.0802613
0.0702382
0.0646398
0.0597068
0.0538401
0.0475924
0.0407554
0.03329
0.0251419
0.0162718
0.00919643
0.303625
0.285248
0.261212
0.238396
0.214432
0.18961
0.16368
0.13676
0.10847
0.0787195
0.0490623
0.0192879
0.128841
0.0803308
0.0701459
0.0645304
0.0596226
0.0537953
0.0475662
0.0407588
0.0333009
0.0251658
0.0162932
0.00922031
0.303359
0.285009
0.261039
0.238251
0.214311
0.189498
0.163571
0.136645
0.108342
0.0785866
0.0489383
0.0192412
0.128508
0.0801803
0.0700983
0.064518
0.0596074
0.0537597
0.0475332
0.0407168
0.033271
0.025138
0.0162804
0.00921144
)
;
    }
    front
    {
        type            empty;
    }
    back
    {
        type            empty;
    }
}

