/*--------------------------------*- C++ -*----------------------------------*\
| =========                 |                                                 |
| \\      /  F ield         | OpenFOAM: The Open Source CFD Toolbox           |
|  \\    /   O peration     | Version:  v1912                                 |
|   \\  /    A nd           | Website:  www.openfoam.com                      |
|    \\/     M anipulation  |                                                 |
\*---------------------------------------------------------------------------*/
FoamFile
{
    version     2.0;
    format      ascii;
    class       volScalarField;
    location    "100";
    object      nut;
}
// * * * * * * * * * * * * * * * * * * * * * * * * * * * * * * * * * * * * * //

dimensions      [0 2 -1 0 0 0 0];


internalField   nonuniform List<scalar> 
3072
(
5.0628e-05
0.000108882
0.000107285
0.000111267
0.000154073
0.000229894
0.000266635
0.000282457
0.000293604
0.000300101
0.000304304
0.000305906
8.15262e-05
0.00024275
0.000222848
0.00022364
0.000294348
0.000394736
0.000540132
0.000729284
0.000943548
0.0011634
0.00138037
0.00158939
0.000115207
0.000417137
0.000430498
0.000530585
0.000716327
0.000967604
0.00132003
0.00169084
0.00204422
0.00236817
0.00266139
0.00288181
0.000142029
0.000617719
0.000734093
0.000914691
0.00118879
0.00158131
0.00203051
0.00247231
0.00287288
0.00323933
0.00353884
0.0037493
0.000160965
0.000775015
0.000989122
0.00124065
0.001617
0.00208367
0.00257853
0.00304614
0.00346301
0.00383653
0.00412023
0.00433307
0.000172355
0.000848727
0.00118828
0.00152578
0.00195354
0.00244937
0.00295864
0.00342603
0.00383976
0.00420185
0.0044802
0.00469582
0.000180564
0.000924356
0.00133835
0.00173469
0.00218955
0.00269144
0.00319034
0.00365692
0.00406831
0.00441157
0.004669
0.00486858
0.000184226
0.000963791
0.00144829
0.00187922
0.00235075
0.00284371
0.00333031
0.00376921
0.00414823
0.00446019
0.00470742
0.0048945
0.00018805
0.000936903
0.00154198
0.00199029
0.00245704
0.00291155
0.00335308
0.00376089
0.00411172
0.00440374
0.00463677
0.00481336
0.000187827
0.000906922
0.00157105
0.00203295
0.00246644
0.00287918
0.00328491
0.00366071
0.00399012
0.0042645
0.00447824
0.0046465
0.000207293
0.000899645
0.00155941
0.00202351
0.00241377
0.00279212
0.00312505
0.00346636
0.00378219
0.0040437
0.00424363
0.00440713
0.000365309
0.000942057
0.00154446
0.00191665
0.00225787
0.00257197
0.00289842
0.0031939
0.00347921
0.00373305
0.00393513
0.00409946
0.000305271
0.00030455
0.000302868
0.000299092
0.000293272
0.000285103
0.000274163
0.000260138
0.000241665
0.000218899
0.000197485
9.79939e-05
0.00175589
0.00186864
0.0019018
0.00185502
0.00176888
0.0016195
0.00140965
0.00116359
0.000896623
0.000558291
0.000273632
0.000159347
0.00302544
0.00310518
0.00311573
0.00305646
0.00293638
0.00273549
0.00243573
0.00203694
0.00156542
0.00103069
0.000455817
0.000201398
0.00390424
0.00398684
0.00400405
0.00395204
0.0038399
0.00366737
0.0033649
0.00292156
0.00232088
0.00159386
0.000762963
0.000241257
0.00448864
0.00458161
0.00461543
0.00459001
0.00450226
0.0043683
0.00409243
0.00366637
0.00302294
0.00216137
0.00109627
0.000278089
0.00484665
0.00493801
0.00497677
0.0049695
0.00490749
0.00481373
0.00459143
0.00423524
0.00367762
0.00275161
0.00151259
0.000316487
0.00500728
0.00509311
0.00513307
0.00513415
0.00509549
0.00503333
0.00489773
0.00465467
0.00420336
0.00333108
0.00198087
0.000354802
0.00502458
0.00510157
0.00513493
0.00513306
0.00510504
0.0050661
0.00500715
0.00488848
0.00458541
0.00384477
0.00239249
0.000396907
0.00493877
0.00500314
0.00502684
0.00501637
0.00498255
0.00495687
0.00494738
0.00494529
0.00484148
0.00429426
0.00278544
0.000442063
0.00476813
0.00482382
0.00483995
0.00481979
0.00477694
0.00475189
0.00476403
0.00484101
0.00493054
0.00464031
0.00325472
0.00048794
0.00452543
0.00457764
0.00459141
0.00455979
0.00451136
0.00448043
0.00450979
0.00463484
0.00485292
0.00489067
0.00380325
0.000536515
0.00421538
0.00427469
0.00428477
0.00425581
0.00421616
0.00419527
0.00424569
0.00439635
0.00469078
0.0049768
0.00441714
0.000588302
4.96641e-05
0.000107509
0.000106316
0.000110684
0.000154506
0.000230185
0.000266659
0.000282444
0.00029356
0.000300056
0.000304242
0.000305788
8.10903e-05
0.000240646
0.000221267
0.000224414
0.000295627
0.00039659
0.000542602
0.000732359
0.000947087
0.00116726
0.00138442
0.00159294
0.000114975
0.000417164
0.000431245
0.00053373
0.000719212
0.000972087
0.00132549
0.00169712
0.00205103
0.0023756
0.00266882
0.00288806
0.000141885
0.000618171
0.000735467
0.000917288
0.00119297
0.0015879
0.00203854
0.00248126
0.00288277
0.00324987
0.0035466
0.00375484
0.000160915
0.000775888
0.000991161
0.00124553
0.00162344
0.00209222
0.00258863
0.00305721
0.00347492
0.00384869
0.00413141
0.00434327
0.000172341
0.000849717
0.001191
0.00153085
0.00196128
0.00245999
0.0029734
0.00343888
0.00385326
0.00421561
0.0044934
0.00470817
0.00018059
0.000925405
0.00134167
0.00174054
0.00219808
0.00270238
0.00320529
0.00367099
0.00408282
0.00442588
0.00468291
0.00488175
0.000184235
0.000964732
0.00145181
0.00188531
0.00235916
0.00285479
0.00334365
0.00378286
0.00416231
0.00447439
0.00472124
0.00490755
0.000188126
0.000938063
0.00154518
0.00199602
0.00246498
0.00292148
0.00336467
0.00377358
0.00412502
0.00441719
0.00464978
0.00482557
0.000187895
0.000906788
0.00157346
0.0020374
0.00247308
0.00288731
0.00329499
0.00367199
0.00400204
0.00427653
0.00448981
0.00465729
0.000207334
0.00089951
0.00156029
0.00202588
0.00241773
0.00279795
0.00313224
0.00347548
0.00379209
0.00405364
0.00425318
0.00441603
0.000365187
0.000941831
0.00154298
0.00191577
0.00225802
0.00257362
0.00290145
0.00319893
0.00348626
0.00374026
0.00394224
0.00410632
0.000305065
0.000304266
0.000302521
0.000298703
0.000292862
0.000284661
0.000273752
0.000259733
0.000241291
0.000218555
0.000197169
9.78286e-05
0.00175869
0.00187021
0.00190219
0.00185442
0.00176749
0.0016179
0.00140792
0.00116217
0.000895425
0.000557417
0.00027316
0.000159099
0.00303118
0.00310888
0.00311766
0.00305667
0.00293501
0.00273366
0.00243352
0.00203432
0.00156285
0.00102897
0.000454995
0.000201095
0.00390907
0.00399202
0.0040073
0.00395326
0.00383931
0.00366649
0.00336276
0.00291686
0.00231688
0.00159095
0.000761467
0.000240888
0.00449766
0.00458943
0.00462119
0.00459348
0.00450337
0.00436799
0.00409088
0.00366109
0.00301714
0.00215729
0.00109392
0.000277666
0.00485779
0.00494772
0.00498456
0.00497505
0.00491066
0.00481491
0.00458994
0.00423128
0.00367251
0.00274673
0.00150934
0.000316013
0.00501929
0.00510363
0.00514169
0.0051405
0.00509911
0.00503468
0.00489615
0.00465042
0.00419741
0.0033249
0.00197661
0.000354278
0.00503645
0.00511196
0.00514345
0.00513938
0.00510887
0.00506736
0.00500537
0.00488364
0.00457858
0.00383772
0.00238822
0.000396328
0.00494979
0.00501271
0.00503462
0.00502208
0.00498594
0.00495805
0.00494554
0.00494008
0.00483383
0.00428662
0.00278035
0.000441468
0.00477776
0.00483207
0.00484655
0.00482454
0.00477973
0.00475274
0.00476226
0.00483611
0.00492252
0.0046317
0.00324901
0.000487314
0.00453333
0.00458424
0.00459651
0.0045635
0.00451369
0.00448039
0.00450797
0.00463039
0.00484539
0.00488238
0.00379769
0.000535904
0.00422142
0.0042794
0.00428803
0.00425836
0.00421724
0.0041946
0.00424346
0.00439211
0.00468418
0.00496867
0.00441099
0.000587695
4.9737e-05
0.000107646
0.000106456
0.000110838
0.000154821
0.000230634
0.000267176
0.000282995
0.000294135
0.000300632
0.000304818
0.000306385
8.11977e-05
0.000240892
0.000221474
0.000224598
0.000295919
0.000397053
0.000543268
0.000733354
0.000948408
0.00116885
0.00138647
0.00159564
0.000115107
0.000417607
0.000431591
0.000534094
0.000719819
0.000973056
0.00132706
0.00169926
0.00205358
0.00237864
0.0026724
0.00289246
0.00014208
0.000618767
0.000735968
0.00091793
0.00119389
0.00158934
0.00204065
0.00248393
0.00288589
0.00325357
0.00355073
0.00375966
0.000161146
0.000776834
0.000991992
0.00124632
0.00162447
0.00209382
0.00259088
0.00305995
0.00347815
0.00385234
0.00413529
0.00434766
0.000172682
0.000850723
0.00119188
0.00153171
0.00196245
0.00246169
0.00297578
0.00344166
0.00385651
0.00421912
0.00449707
0.0047122
0.000180205
0.000924668
0.00134265
0.00174164
0.00219946
0.00270436
0.00320771
0.00367375
0.00408595
0.00442908
0.00468629
0.00488524
0.000185476
0.000969656
0.00145331
0.00188678
0.00236105
0.00285695
0.00334621
0.0037858
0.00416545
0.00447765
0.00472457
0.00491093
0.000188595
0.000934961
0.00154634
0.00199765
0.00246723
0.00292418
0.00336775
0.00377685
0.00412835
0.00442064
0.00465322
0.00482913
0.000187979
0.000908618
0.00157528
0.00203966
0.00247578
0.0028906
0.00329853
0.00367567
0.00400585
0.00428036
0.00449358
0.00466127
0.000207486
0.000900915
0.00156261
0.00202889
0.00242139
0.00280202
0.00313661
0.00348
0.00379671
0.00405817
0.00425772
0.0044207
0.000365102
0.000942809
0.00154562
0.00191999
0.00226268
0.00257908
0.00290714
0.00320456
0.00349239
0.00374643
0.0039482
0.00411175
0.000305697
0.000304927
0.000303206
0.000299374
0.000293522
0.000285297
0.000274334
0.000260257
0.000241747
0.000218918
0.000197474
9.798e-05
0.00176218
0.00187451
0.00190708
0.00185984
0.00177311
0.00162339
0.0014128
0.00116587
0.000898123
0.000559143
0.000273776
0.00015933
0.00303635
0.00311525
0.00312507
0.00306487
0.00294367
0.00274215
0.00244144
0.002041
0.00156753
0.0010319
0.000456266
0.000201384
0.00391476
0.00399885
0.00401525
0.00396204
0.00384871
0.00367569
0.00337171
0.00292501
0.00232334
0.00159526
0.000763372
0.000241235
0.00450257
0.0045951
0.00462779
0.00460105
0.00451205
0.0043772
0.00410019
0.00366963
0.00302466
0.00216273
0.00109668
0.000278063
0.00486203
0.00495229
0.00498964
0.0049808
0.00491726
0.00482219
0.00459802
0.00423984
0.00368052
0.00275304
0.00151288
0.000316452
0.00502288
0.0051074
0.00514575
0.00514502
0.00510432
0.00504057
0.00490302
0.00465817
0.00420545
0.00333192
0.00198098
0.000354766
0.0050398
0.00511527
0.00514683
0.00514294
0.00511281
0.00507195
0.00501104
0.00489067
0.00458672
0.00384533
0.00239258
0.000396871
0.00495315
0.0050158
0.00503763
0.00502504
0.00498895
0.00496148
0.00494997
0.00494606
0.00484142
0.00429424
0.00278537
0.000442033
0.00478149
0.00483528
0.00484961
0.00482736
0.00478226
0.00475551
0.00476569
0.00484091
0.00492938
0.00463984
0.00325454
0.000487913
0.00453758
0.00458805
0.00460007
0.00456671
0.00451644
0.00448357
0.00451095
0.00463421
0.00485107
0.00488973
0.00380264
0.000536485
0.00422628
0.00428405
0.00429256
0.00426205
0.00422038
0.00419707
0.00424637
0.00439555
0.00468897
0.00497529
0.00441631
0.000588256
4.96561e-05
0.000107475
0.000106281
0.00011054
0.000153761
0.000229749
0.00026648
0.000282285
0.000293415
0.000299911
0.000304108
0.000305664
8.10652e-05
0.000240413
0.000221044
0.000223696
0.000294368
0.000394904
0.000540417
0.000729626
0.000943883
0.00116376
0.00138055
0.00158895
0.000114895
0.000416193
0.000429634
0.000530342
0.000716036
0.000967809
0.00132046
0.00169148
0.00204504
0.00236912
0.00266188
0.00288091
0.000141814
0.000616487
0.000732673
0.00091388
0.00118847
0.00158185
0.00203157
0.00247385
0.00287506
0.00324187
0.00353816
0.00374628
0.000160812
0.000774271
0.000987777
0.00124016
0.00161727
0.00208485
0.00258048
0.00304871
0.00346614
0.00383969
0.00412199
0.004334
0.000172234
0.000847999
0.00118727
0.0015256
0.00195425
0.00245112
0.00296124
0.00342939
0.00384374
0.00420568
0.00448324
0.00469824
0.000180464
0.000923609
0.00133759
0.00173465
0.00219048
0.00269338
0.00319331
0.00366076
0.00407261
0.00441559
0.0046726
0.00487157
0.000184155
0.000963195
0.00144753
0.00187911
0.0023515
0.00284572
0.0033333
0.00377269
0.00415199
0.0044639
0.00471078
0.00489728
0.000187964
0.000936566
0.00154131
0.00199005
0.00245758
0.00291289
0.00335516
0.00376357
0.00411473
0.00440677
0.00463948
0.00481555
0.000187758
0.000906448
0.00157025
0.00203234
0.00246646
0.00287964
0.00328613
0.00366248
0.00399219
0.00426658
0.00448002
0.00464779
0.000207206
0.00089949
0.00155857
0.00202261
0.00241301
0.00279168
0.00312483
0.00346697
0.00378307
0.00404458
0.00424424
0.00440731
0.00036497
0.000941794
0.00154301
0.00191497
0.00225618
0.00256998
0.00289658
0.00319263
0.00347859
0.00373232
0.00393434
0.00409854
0.00030496
0.00030418
0.000302459
0.000298667
0.000292852
0.000284675
0.000273785
0.000259782
0.000241369
0.00021864
0.000197297
9.7908e-05
0.00175458
0.00186617
0.00189837
0.00185085
0.0017644
0.00161517
0.00140559
0.00116023
0.000894174
0.000557102
0.000273227
0.000159171
0.00302403
0.00310205
0.00311136
0.00305114
0.0029303
0.00272962
0.00242985
0.00203165
0.00156107
0.00102787
0.000454773
0.000201134
0.00390072
0.0039841
0.00400009
0.00394687
0.0038332
0.00366055
0.00335749
0.00291425
0.0023147
0.00158944
0.00076097
0.00024091
0.00448858
0.00458082
0.00461328
0.00458629
0.00449618
0.00436082
0.00408429
0.00365761
0.00301504
0.00215526
0.00109328
0.000277661
0.00484811
0.00493849
0.00497589
0.00496697
0.00490283
0.00480746
0.00458311
0.00422564
0.00366778
0.00274366
0.00150833
0.000315986
0.00500935
0.00509402
0.00513252
0.00513176
0.00509061
0.0050266
0.00488862
0.00464365
0.00419173
0.00332149
0.00197542
0.000354225
0.00502647
0.00510229
0.00513416
0.00513043
0.00510016
0.00505894
0.00499738
0.00487629
0.0045724
0.00383337
0.00238657
0.000396249
0.00494009
0.00500329
0.00502557
0.00501337
0.00497744
0.0049497
0.00493745
0.00493232
0.00482695
0.00428148
0.00277856
0.000441362
0.00476861
0.0048232
0.00483807
0.00481644
0.00477175
0.00474495
0.00475457
0.00482857
0.00491512
0.00462593
0.00324714
0.000487178
0.00452492
0.00457614
0.00458884
0.0045562
0.00450639
0.00447351
0.00450111
0.00462359
0.00483819
0.00487583
0.00379606
0.000535749
0.00421385
0.00427217
0.00428143
0.00425202
0.00421109
0.00418923
0.00423828
0.00438689
0.00467835
0.00496168
0.00440931
0.000587524
0.00217455
0.0021646
0.00210413
0.00208807
0.00213401
0.00228008
0.00252365
0.00283251
0.00311733
0.00335999
0.00356572
0.00372594
0.00329438
0.0028295
0.00247853
0.00235928
0.0022595
0.00225463
0.00230986
0.0024806
0.00272125
0.00296431
0.00316543
0.00332572
0.00421571
0.00363461
0.00310171
0.00278205
0.00250686
0.00237864
0.00228471
0.00233186
0.00245369
0.00262397
0.00280139
0.00295534
0.00453488
0.00407831
0.00357852
0.00313457
0.00275685
0.00257743
0.00239148
0.00223102
0.00229527
0.00241657
0.00256354
0.00271703
0.0038487
0.00392504
0.00394222
0.00395561
0.00393911
0.00395084
0.00403703
0.0042034
0.00453591
0.00508293
0.0057208
0.0023169
0.00346972
0.00354564
0.0036142
0.00366525
0.00368268
0.00375247
0.00398152
0.00419173
0.00450918
0.00500312
0.00595558
0.00400793
0.00311855
0.00320365
0.0033346
0.00340829
0.00352038
0.00389805
0.00416923
0.0043893
0.00459552
0.00484451
0.00548142
0.00484624
0.00285391
0.00297625
0.00312037
0.00347931
0.00390595
0.0041721
0.00443018
0.00457467
0.00463959
0.00469589
0.00494564
0.00486663
0.00217069
0.00215897
0.00209803
0.00208369
0.00212987
0.00227645
0.00252368
0.00283494
0.00312128
0.00336507
0.00357064
0.00373075
0.0032874
0.00282147
0.00247269
0.00235409
0.00225146
0.00224813
0.00230451
0.00247818
0.00272169
0.00296627
0.0031672
0.00332791
0.00420794
0.00362497
0.00309426
0.00277264
0.00250111
0.00236941
0.00227755
0.00232607
0.00244985
0.00262223
0.00279977
0.00295497
0.00452602
0.00406785
0.00356928
0.00312262
0.00274817
0.002569
0.00237863
0.00222254
0.00228911
0.00241223
0.00256009
0.00271517
0.00385284
0.00392755
0.00394344
0.00395656
0.00393822
0.00394875
0.00403365
0.00419893
0.00452975
0.00507581
0.00571471
0.00231789
0.00347161
0.00354549
0.00361396
0.00366391
0.00368042
0.00374853
0.00397648
0.00418705
0.00450434
0.00499794
0.00595041
0.00400845
0.00311744
0.00320253
0.00333237
0.00340539
0.00351587
0.00389337
0.00416514
0.00438578
0.00459345
0.00484299
0.00547978
0.00484748
0.00285184
0.00297311
0.00311611
0.00347444
0.00390139
0.00416809
0.00442764
0.00457465
0.0046415
0.00469892
0.00494891
0.00487035
0.00217237
0.0021622
0.0021022
0.00208813
0.00213566
0.00228332
0.00253098
0.00284197
0.00312829
0.00337225
0.00357748
0.00373714
0.00329042
0.00282647
0.00247717
0.00235875
0.00225849
0.00225528
0.00231304
0.00248713
0.00273054
0.00297459
0.00317531
0.00333551
0.00421119
0.00363123
0.0031001
0.00278017
0.0025069
0.00237766
0.00228634
0.00233622
0.00246041
0.00263257
0.0028092
0.00296348
0.00453068
0.00407492
0.00357626
0.00313167
0.00275576
0.0025768
0.00239003
0.00223313
0.00229983
0.0024227
0.00257039
0.00272252
0.00385873
0.00393319
0.00394899
0.00396038
0.00394229
0.00395026
0.0040371
0.00420216
0.00453415
0.00508137
0.00571957
0.00231571
0.0034784
0.00355285
0.00361989
0.00366817
0.00368387
0.0037522
0.00398127
0.00419199
0.00450956
0.00500351
0.00595584
0.00400728
0.00312537
0.00320931
0.00333785
0.00341011
0.00352157
0.0038998
0.0041697
0.00439013
0.00459774
0.00484736
0.0054847
0.00484823
0.0028578
0.0029782
0.00312175
0.00348173
0.00390702
0.00417384
0.00443241
0.00457832
0.00464425
0.00470125
0.00495157
0.00487142
0.00216931
0.00215813
0.00209822
0.00208442
0.00213037
0.00227601
0.002521
0.00283053
0.00311558
0.00335837
0.00356396
0.00372396
0.00328652
0.00282145
0.00247328
0.0023551
0.00225343
0.00224996
0.00230527
0.00247679
0.00271828
0.00296159
0.0031626
0.00332264
0.004209
0.00362652
0.00309577
0.0027751
0.00250325
0.00237264
0.00227965
0.00232674
0.00244911
0.00261985
0.00279743
0.00295135
0.00452944
0.00407102
0.00357183
0.0031259
0.00275132
0.00257272
0.00238341
0.00222492
0.0022899
0.00241164
0.00255854
0.00271316
0.00384611
0.00392142
0.00393798
0.00395145
0.00393403
0.00394541
0.00403017
0.00419545
0.00452539
0.00507028
0.00571188
0.00231809
0.0034661
0.00354117
0.00360953
0.00366076
0.0036781
0.00374655
0.00397353
0.00418412
0.00449988
0.00499317
0.00594689
0.0040104
0.0031143
0.00319929
0.00333036
0.00340385
0.0035144
0.00388883
0.00416489
0.00438413
0.00459028
0.00483906
0.00547553
0.00484921
0.00285049
0.00297286
0.00311639
0.00347279
0.00390294
0.00416835
0.00442513
0.00457025
0.0046367
0.00469426
0.00494456
0.00487233
0.00398888
0.00357783
0.00316049
0.0028308
0.00257844
0.00240664
0.00229628
0.00216906
0.00228455
0.0023944
0.00247525
0.0025734
0.00352151
0.0031615
0.00285851
0.00263024
0.00243152
0.00231533
0.00226203
0.00224804
0.00232225
0.00230269
0.00220368
0.0020817
0.00316093
0.00287973
0.00267926
0.00250778
0.00236417
0.00231614
0.00230288
0.00229778
0.00226281
0.00209295
0.00178442
0.00136267
0.00292321
0.00272817
0.00258617
0.00246531
0.00237683
0.00236292
0.00234009
0.00228414
0.00214294
0.001853
0.00127516
0.000646134
0.00279939
0.00321014
0.00355546
0.00407721
0.00447188
0.00465243
0.00470513
0.00467246
0.00458448
0.00449846
0.00448308
0.00431237
0.0022864
0.0030296
0.00374429
0.00433026
0.00468459
0.00479552
0.00475704
0.00463705
0.00442251
0.00423655
0.00407108
0.00383333
0.0012266
0.00284234
0.00377876
0.00435385
0.00470591
0.00479411
0.00470145
0.00452563
0.00423204
0.00395298
0.00370621
0.00344476
0.000560438
0.00265614
0.00370006
0.00428359
0.00463967
0.0047192
0.00459445
0.0043832
0.00404771
0.00371948
0.00343357
0.00316857
0.00397687
0.00356583
0.00314943
0.00282078
0.00256841
0.00239666
0.00228388
0.00216144
0.00227912
0.00239027
0.00247114
0.00256924
0.00350798
0.00314909
0.00284842
0.00261959
0.00242038
0.00230497
0.00225124
0.00224233
0.00231674
0.00229718
0.00219728
0.00207429
0.00314624
0.0028689
0.00266897
0.00249639
0.0023536
0.00230656
0.00229411
0.00229248
0.00225679
0.00208651
0.00177649
0.00135341
0.00291011
0.002718
0.00257581
0.00245432
0.00236744
0.00235441
0.00233267
0.00227885
0.00213715
0.00184747
0.00126737
0.000637361
0.00279479
0.00320559
0.00355043
0.00407331
0.00446925
0.00465325
0.00470859
0.00467693
0.00458996
0.00450532
0.00448962
0.00431966
0.0022776
0.00302441
0.00373966
0.00432667
0.00468314
0.00479912
0.00476454
0.00464618
0.00443131
0.0042462
0.00408117
0.00384401
0.00121717
0.00283756
0.00377452
0.00435095
0.0047056
0.00479939
0.00470808
0.00453429
0.0042428
0.00396515
0.00371889
0.0034575
0.000558017
0.00265212
0.00369614
0.00428108
0.00463992
0.00472519
0.00460134
0.00439201
0.00405955
0.00373292
0.00344742
0.00318196
0.00398555
0.00357528
0.0031585
0.00282949
0.00257768
0.0024065
0.00229589
0.00217264
0.00228982
0.00239954
0.00247888
0.00257417
0.00351903
0.00315993
0.00285774
0.00262965
0.00243152
0.00231632
0.00226377
0.00225281
0.00232656
0.00230544
0.00220384
0.00207839
0.00315892
0.00287966
0.00267925
0.00250805
0.00236537
0.00231829
0.00230586
0.00230218
0.00226585
0.00209416
0.00178274
0.00135767
0.0029231
0.00272908
0.00258691
0.00246661
0.00237899
0.00236569
0.00234332
0.00228777
0.00214528
0.00185418
0.00127347
0.000641435
0.0027983
0.00320958
0.00355556
0.00407942
0.00447436
0.00465586
0.00470902
0.00467777
0.00459077
0.0045055
0.00448994
0.00431815
0.00228102
0.0030285
0.00374515
0.00433262
0.00468755
0.00480011
0.00476204
0.00464341
0.00443003
0.00424452
0.00407876
0.00383997
0.00122035
0.00284139
0.0037798
0.00435622
0.00470948
0.00479971
0.00470738
0.00453244
0.00424001
0.00396138
0.00371419
0.00345176
0.00055934
0.00265588
0.00370127
0.00428601
0.00464331
0.00472491
0.00460045
0.00438992
0.00405566
0.00372782
0.00344144
0.00317537
0.0039816
0.00357005
0.00315321
0.00282446
0.00257245
0.00240103
0.00228838
0.00216289
0.00227884
0.00238916
0.00247044
0.00256973
0.00351371
0.00315408
0.00285256
0.0026238
0.00242476
0.00230883
0.00225395
0.00224203
0.00231594
0.00229676
0.00219819
0.00207725
0.00315228
0.00287389
0.00267335
0.00250063
0.00235728
0.00230903
0.00229505
0.00229148
0.00225606
0.00208653
0.00177803
0.00135697
0.00291576
0.00272281
0.00257996
0.00245778
0.00236987
0.00235548
0.00233253
0.00227771
0.00213646
0.00184718
0.00126822
0.000640149
0.00279669
0.00320703
0.00355222
0.00407386
0.00447033
0.00465471
0.00470332
0.00467106
0.00458475
0.00450108
0.0044875
0.0043244
0.002282
0.00302682
0.00374191
0.00432827
0.0046845
0.00479685
0.00475728
0.00463743
0.00442561
0.00424196
0.00408089
0.00384984
0.00122159
0.00284024
0.00377741
0.00435339
0.00470633
0.00479566
0.0047024
0.00452668
0.00423664
0.00396229
0.00372129
0.00346398
0.000559152
0.00265426
0.00369929
0.00428387
0.00464062
0.00472084
0.00459548
0.00438413
0.00405259
0.00372977
0.00344945
0.00318581
0.00280566
0.00266774
0.00256782
0.00248722
0.00242743
0.00240505
0.00234274
0.00222412
0.00200847
0.00166675
0.000998346
0.000196059
0.00277521
0.00268039
0.00260678
0.00253282
0.00247994
0.00242505
0.00231612
0.00214498
0.00189112
0.00154992
0.000942732
0.00015166
0.00280843
0.00273818
0.00266077
0.0025877
0.00251987
0.002426
0.00227659
0.0020723
0.00181078
0.00150392
0.000969598
0.000144133
0.00287397
0.00280232
0.00271773
0.00263788
0.00254524
0.00241636
0.00223826
0.00201837
0.00176506
0.00148364
0.00100432
0.000142984
0.00293408
0.00285227
0.00276661
0.00267294
0.00255502
0.00239879
0.00220209
0.0019757
0.00172764
0.00144491
0.00100332
0.000141951
0.00296464
0.00287766
0.00278939
0.00268104
0.00254156
0.00236453
0.00215396
0.00191989
0.00166453
0.0013668
0.00095339
0.000139282
0.00293747
0.00285536
0.00276473
0.00264431
0.0024878
0.00229408
0.00206987
0.00182348
0.00155363
0.00124288
0.000861796
0.00013524
0.00282283
0.00275293
0.00266263
0.00253446
0.00236606
0.00215933
0.00192288
0.00166553
0.00138722
0.0010769
0.000735071
0.000129428
0.0025713
0.00252007
0.00243526
0.00230584
0.00213377
0.00192234
0.00168348
0.00142852
0.00115953
0.000871971
0.000577414
0.000121019
0.00209735
0.00207073
0.00200052
0.00188162
0.00172331
0.00152801
0.0013135
0.00108884
0.00086017
0.000623629
0.000392388
0.00010897
0.00125547
0.00125153
0.0012113
0.00113011
0.00102873
0.000897137
0.000759691
0.000612539
0.000468321
0.000324866
0.000178829
9.11683e-05
0.000146493
0.000143765
0.000138615
0.000132634
0.000125174
0.000115654
0.000103648
9.0583e-05
7.74493e-05
6.3694e-05
4.71044e-05
2.75641e-05
0.000289549
0.00247253
0.00358227
0.00415972
0.004515
0.00460295
0.00446403
0.00423526
0.00388891
0.00354656
0.00325354
0.00300729
0.000289748
0.00238821
0.00344067
0.00399565
0.00434586
0.00445237
0.00431877
0.00408663
0.00376004
0.00343026
0.00315354
0.00293609
0.00028692
0.00230674
0.00326955
0.0037969
0.00413893
0.00426897
0.004165
0.00394586
0.00365566
0.00335709
0.00311057
0.00292411
0.000282903
0.00220123
0.00306545
0.0035658
0.00389875
0.00405424
0.00399691
0.00381177
0.00356468
0.00330959
0.00310133
0.00295028
0.000276829
0.00206583
0.00282632
0.00330202
0.00362781
0.00380265
0.00379307
0.00366052
0.00346686
0.0032676
0.00309544
0.0029868
0.000268167
0.00189568
0.00254995
0.00300222
0.00332374
0.00350973
0.00354489
0.00346767
0.00333663
0.00319747
0.00306942
0.00300095
0.000256524
0.00168573
0.00223387
0.00265993
0.00297534
0.00317118
0.00324598
0.00322557
0.00315529
0.00307286
0.00299453
0.0029607
0.000241301
0.00143173
0.00187563
0.00226608
0.00256822
0.00276969
0.00287642
0.00290653
0.0028946
0.0028648
0.0028325
0.0028317
0.000221094
0.00112876
0.00147209
0.00180877
0.00208309
0.00227757
0.00240398
0.00247404
0.0025133
0.00252789
0.00253361
0.00256325
0.000193849
0.000780153
0.00101876
0.00126412
0.00148114
0.00164983
0.00177843
0.0018734
0.00194516
0.00199164
0.00202202
0.00207209
0.000158098
0.000369128
0.000484746
0.00063342
0.000768711
0.000872051
0.000960094
0.00103531
0.00109839
0.00114536
0.00118633
0.0012285
3.94243e-05
5.58206e-05
7.69776e-05
9.62186e-05
0.000109106
0.000118139
0.000125118
0.000131049
0.000136144
0.000140629
0.000143816
0.000145851
0.00279411
0.00265817
0.00255808
0.00247711
0.00241909
0.00239731
0.00233613
0.00221904
0.00200367
0.00166329
0.000995967
0.000195136
0.00276512
0.00267206
0.0025988
0.00252302
0.00247216
0.00241771
0.00230995
0.00214028
0.00188769
0.00154917
0.000944062
0.000151728
0.00279958
0.00272973
0.00265146
0.00257881
0.00251208
0.00241871
0.00227057
0.00206797
0.00180855
0.00150484
0.000973109
0.000144538
0.00286597
0.00279346
0.00270831
0.00262901
0.00253704
0.0024088
0.00223211
0.00201419
0.00176353
0.00148518
0.00100853
0.000143367
0.00292639
0.00284317
0.00275704
0.00266367
0.00254624
0.00239079
0.00219562
0.00197146
0.00172639
0.00144674
0.00100788
0.000142271
0.00295709
0.00286865
0.00277968
0.00267133
0.00253224
0.00235611
0.00214721
0.00191558
0.00166341
0.00136907
0.00095786
0.000139487
0.00293031
0.00284662
0.00275507
0.00263441
0.00247823
0.00228549
0.00206306
0.0018192
0.00155257
0.00124518
0.000866124
0.000135354
0.00281634
0.00274473
0.00265336
0.0025248
0.00235667
0.00215096
0.00191628
0.00166141
0.00138607
0.00107875
0.000738832
0.000129412
0.00256573
0.00251277
0.00242684
0.00229698
0.00212512
0.00191466
0.00167745
0.00142467
0.00115819
0.000873032
0.0005802
0.000120891
0.00209295
0.00206482
0.00199358
0.00187435
0.00171617
0.0015217
0.00130853
0.00108549
0.000858609
0.000623685
0.000393981
0.000108726
0.00125315
0.00124796
0.00120699
0.00112572
0.00102425
0.00089323
0.00075663
0.000610334
0.0004671
0.000324487
0.000179307
9.08557e-05
0.000146073
0.000143318
0.000138152
0.000132165
0.000124705
0.000115191
0.000103217
9.02201e-05
7.71565e-05
6.34697e-05
4.69637e-05
2.74657e-05
0.000289171
0.00246941
0.0035787
0.00415752
0.00451543
0.00460897
0.00447138
0.00424386
0.00390099
0.00356016
0.00326729
0.00302049
0.000289449
0.00238556
0.00343741
0.0039937
0.00434621
0.00445764
0.00432616
0.00409524
0.00377168
0.00344338
0.00316663
0.00294855
0.000286629
0.00230437
0.00326654
0.00379517
0.00413918
0.00427336
0.00417228
0.00395415
0.00366638
0.00336937
0.00312314
0.00293565
0.000282664
0.00219906
0.00306265
0.00356429
0.00389901
0.00405789
0.00400338
0.00381947
0.00357394
0.00332097
0.00311431
0.00296121
0.000276603
0.00206379
0.00282368
0.00330069
0.00362823
0.0038053
0.00379794
0.00366676
0.00347464
0.00327751
0.00310609
0.00299585
0.000267992
0.00189372
0.00254745
0.00300098
0.00332406
0.00351168
0.00354868
0.00347291
0.00334359
0.00320649
0.00307842
0.00300906
0.000256356
0.00168377
0.0022315
0.00265874
0.00297546
0.00317271
0.00324898
0.00322984
0.00316099
0.0030811
0.00300259
0.00296823
0.000241163
0.00142968
0.00187341
0.00226492
0.00256806
0.00277062
0.00287847
0.00290964
0.00289879
0.00287221
0.00283969
0.00283851
0.000220894
0.00112653
0.00147009
0.00180767
0.00208263
0.0022778
0.00240502
0.00247596
0.00251625
0.00253394
0.00253969
0.002569
0.000193688
0.000777948
0.00101709
0.00126315
0.00148056
0.00164942
0.00177857
0.0018743
0.00194717
0.00199554
0.00202665
0.00207637
0.000157777
0.00036763
0.000483721
0.000632877
0.000768189
0.000871543
0.000959932
0.00103581
0.00109934
0.00114712
0.00118859
0.00123107
3.93217e-05
5.57977e-05
7.70538e-05
9.63025e-05
0.000109185
0.000118237
0.000125256
0.000131221
0.000136357
0.000140899
0.000144151
0.000146333
0.00280676
0.0026694
0.00256931
0.00248925
0.00243003
0.00240791
0.00234579
0.00222714
0.00201065
0.00166868
0.000999435
0.00019558
0.00277682
0.0026826
0.00260866
0.00253513
0.00248258
0.00242774
0.00231888
0.00214767
0.00189357
0.00155296
0.00094561
0.000151803
0.00281
0.00274051
0.00266267
0.00259003
0.0025223
0.00242844
0.00227913
0.00207494
0.0018137
0.00150763
0.000973241
0.000144445
0.00287574
0.00280455
0.00271963
0.00263999
0.00254737
0.00241855
0.00224065
0.00202109
0.00176834
0.00148742
0.00100789
0.000143269
0.00293594
0.00285435
0.00276836
0.00267472
0.00255683
0.00240073
0.00220433
0.00197842
0.00173092
0.00144837
0.00100661
0.000142187
0.00296662
0.00287954
0.00279094
0.00268251
0.00254306
0.00236621
0.002156
0.0019224
0.00166748
0.00136985
0.000956243
0.000139467
0.00293961
0.00285709
0.00276611
0.00264551
0.00248902
0.00229547
0.00207161
0.00182558
0.00155606
0.00124537
0.000864237
0.000135355
0.00282506
0.00275454
0.00266386
0.00253544
0.00236701
0.00216038
0.0019242
0.00166709
0.00138902
0.00107872
0.000736989
0.000129465
0.00257336
0.00252146
0.00243627
0.00230656
0.0021344
0.00192297
0.0016843
0.00142943
0.00116071
0.000873033
0.000578721
0.000120966
0.00209878
0.00207171
0.00200115
0.00188197
0.0017235
0.0015282
0.00131375
0.0010892
0.00086059
0.000623997
0.000393058
0.000108828
0.0012564
0.00125193
0.00121143
0.00113014
0.0010286
0.000896994
0.000759541
0.00061253
0.000468202
0.000324815
0.000178889
9.09438e-05
0.000146555