/*--------------------------------*- C++ -*----------------------------------*\
| =========                 |                                                 |
| \\      /  F ield         | OpenFOAM: The Open Source CFD Toolbox           |
|  \\    /   O peration     | Version:  v1912                                 |
|   \\  /    A nd           | Website:  www.openfoam.com                      |
|    \\/     M anipulation  |                                                 |
\*---------------------------------------------------------------------------*/
FoamFile
{
    version     2.0;
    format      ascii;
    class       volScalarField;
    location    "100";
    object      p;
}
// * * * * * * * * * * * * * * * * * * * * * * * * * * * * * * * * * * * * * //

dimensions      [0 2 -2 0 0 0 0];


internalField   nonuniform List<scalar> 
3072
(
0.00738357
-0.37484
-0.604729
-0.709019
-0.641996
-0.41336
-0.600212
-1.67209
-2.97211
-4.37327
-5.51931
-6.3199
0.732322
0.418033
0.310135
0.278088
0.611712
1.66915
2.26812
2.38351
2.20015
1.87087
1.53589
1.22679
2.03839
1.80761
2.01322
2.3128
2.59601
2.97651
3.15846
3.10845
2.94602
2.70776
2.44754
2.2275
3.52413
3.52328
3.8725
4.23058
4.5232
4.7097
4.76331
4.78954
4.73896
4.63717
4.50891
4.3908
4.62155
4.89779
5.33899
5.74699
6.05933
6.26018
6.3517
6.37432
6.31808
6.20921
6.07017
5.92921
5.59001
6.1509
6.66767
7.14529
7.47829
7.68111
7.76795
7.76722
7.69207
7.56653
7.41234
7.25154
6.6271
7.40628
7.97232
8.49238
8.83185
9.01802
9.0767
9.04139
8.93479
8.7793
8.59636
8.4057
7.75551
8.72392
9.3305
9.82985
10.133
10.2735
10.2854
10.2057
10.0612
9.87417
9.66477
9.45033
9.00148
10.0642
10.6865
11.1231
11.3557
11.4273
11.3809
11.2556
11.0783
10.8687
10.6424
10.4123
10.2619
11.4414
12.0269
12.3445
12.474
12.4608
12.3548
12.1913
11.9942
11.7766
11.5467
11.3117
11.5166
12.819
13.3438
13.4776
13.4702
13.3581
13.1977
13.0131
12.8155
12.61
12.3947
12.1695
12.454
14.333
14.5987
14.4676
14.3132
14.1048
13.9048
13.7219
13.5496
13.3817
13.2021
13.0027
-6.67608
-6.56972
-5.98663
-4.94126
-3.47258
-1.65012
0.408151
2.52502
4.50962
6.25741
7.19441
6.90426
1.05304
1.03543
1.21869
1.61188
2.22493
3.0326
3.98919
4.98514
5.93064
6.98156
7.47098
6.40038
2.10719
2.12914
2.32789
2.69302
3.19895
3.82527
4.51847
5.1719
5.69425
6.22288
6.38317
4.73414
4.31454
4.30499
4.37815
4.53534
4.77709
5.08764
5.42788
5.71998
5.86776
5.88548
5.77981
3.56277
5.81291
5.73318
5.70832
5.75372
5.86361
6.02024
6.19234
6.32003
6.30982
6.08646
5.77914
3.38633
7.09744
6.96825
6.8915
6.87752
6.91723
7.00329
7.11211
7.1959
7.17773
6.986
6.64244
4.32975
8.21929
8.0625
7.95242
7.89766
7.90576
7.97699
8.09837
8.23088
8.31622
8.26054
8.07796
6.37211
9.24177
9.06103
8.92491
8.84946
8.85179
8.94599
9.1316
9.3831
9.66886
9.90853
10.1755
9.22503
10.1873
9.98689
9.83193
9.74268
9.74834
9.87906
10.1512
10.5509
11.0844
11.7027
12.6015
12.9087
11.0811
10.8666
10.693
10.5871
10.5912
10.7525
11.1037
11.6415
12.4218
13.4333
15.1814
17.0872
11.9421
11.7177
11.5241
11.3942
11.3836
11.5517
11.9367
12.5544
13.5084
14.8306
17.4627
21.2625
12.7889
12.5591
12.3445
12.181
12.1349
12.2683
12.6068
13.2279
14.1752
15.5402
18.3085
23.3203
0.00469773
-0.374745
-0.603076
-0.706133
-0.636602
-0.409337
-0.604788
-1.67639
-2.97202
-4.36484
-5.50291
-6.29597
0.727025
0.417705
0.31187
0.283264
0.624197
1.67856
2.26798
2.38081
2.19615
1.86927
1.53704
1.23228
2.02518
1.79838
2.0069
2.30744
2.59397
2.97407
3.15442
3.1058
2.94489
2.7099
2.45283
2.23601
3.50701
3.50946
3.86108
4.22018
4.51395
4.7013
4.75688
4.78499
4.73632
4.63722
4.51173
4.39646
4.60292
4.88184
5.32457
5.73353
6.04697
6.24929
6.34264
6.36727
6.31337
6.20728
6.07097
5.93294
5.57117
6.13435
6.65188
7.13014
7.46399
7.66818
7.75681
7.75832
7.68589
7.56315
7.41201
7.25412
6.60885
7.38964
7.95628
8.47652
8.8164
9.00373
9.06417
9.03124
8.92737
8.77502
8.59512
8.40807
7.73719
8.70792
9.31472
9.8138
10.1171
10.2585
10.2721
10.1946
10.053
9.86903
9.66288
9.45188
8.98451
10.0492
10.6714
11.1074
11.3399
11.4122
11.3673
11.2442
11.0697
10.863
10.6397
10.4129
10.2463
11.4276
12.0123
12.3295
12.4588
12.4462
12.3417
12.1803
11.9855
11.7706
11.5433
11.3111
11.5027
12.8052
13.33
13.4633
13.4559
13.3446
13.1856
13.0028
12.8072
12.6039
12.3907
12.1678
12.4418
14.3199
14.5856
14.4546
14.3003
14.0928
13.8942
13.7129
13.5422
13.3758
13.1977
13
-6.64717
-6.53794
-5.95521
-4.91294
-3.45038
-1.63598
0.412895
2.52025
4.49626
6.23662
7.16827
6.87836
1.06193
1.04697
1.23098
1.62327
2.23326
3.03669
3.98764
4.97769
5.91771
6.96407
7.44957
6.38014
2.11839
2.14222
2.34135
2.70539
3.20893
3.83165
4.5204
5.16911
5.68728
6.2125
6.37066
4.72314
4.32267
4.31486
4.38904
4.54622
4.78667
5.09486
5.43195
5.72059
5.86525
5.88073
5.77412
3.55872
5.81897
5.74239
5.71918
5.76527
5.87405
6.02917
6.19848
6.32365
6.31064
6.08568
5.77726
3.38589
7.10383
6.9773
6.9025
6.88842
6.92813
7.01229
7.11947
7.20026
7.18002
6.98567
6.64106
4.32877
8.22502
8.07061
7.96209
7.90835
7.91596
7.98623
8.10526
8.23555
8.3178
8.25988
8.07466
6.36729
9.24654
9.06807
8.93379
8.85913
8.86144
8.9543
9.13789
9.3865
9.66909
9.90569
10.1686
9.21447
10.1909
9.99276
9.83949
9.75123
9.75684
9.88634
10.1562
10.553
11.0829
11.6969
12.5909
12.8916
11.0832
10.8708
10.699
10.5942
10.5984
10.7585
11.1073
11.6422
12.4184
13.4265
15.1669
17.0642
11.9426
11.7201
11.5282
11.3994
11.3891
11.5561
11.9391
12.5542
13.5047
14.8223
17.447
21.2366
12.7878
12.5597
12.3466
12.1843
12.1387
12.2711
12.6083
13.2277
14.1714
15.534
18.2952
23.3012
0.00809425
-0.371967
-0.600814
-0.70406
-0.634459
-0.407155
-0.604652
-1.68127
-2.98299
-4.38207
-5.52532
-6.32226
0.730001
0.419968
0.313912
0.285117
0.626504
1.68226
2.27159
2.38298
2.19588
1.86602
1.53069
1.22323
2.02949
1.80191
2.01047
2.31117
2.59762
2.9775
3.1567
3.10601
2.94262
2.70487
2.44518
2.22615
3.51311
3.51514
3.86714
4.22636
4.51963
4.70574
4.75959
4.78581
4.73496
4.63361
4.50597
4.38884
4.6104
4.88905
5.33222
5.74109
6.0538
6.25477
6.3464
6.36902
6.31291
6.2045
6.06613
5.92618
5.57904
6.14283
6.66078
7.13894
7.47189
7.67464
7.7614
7.76076
7.68593
7.56093
7.40749
7.24779
6.61702
7.40025
7.96602
8.48604
8.82512
9.01096
9.06941
9.03416
8.92784
8.77293
8.5908
8.40123
7.74966
8.71475
9.32447
9.82381
10.1264
10.2662
10.2778
10.1979
10.0537
9.86718
9.65861
9.44511
8.99211
10.062
10.6826
11.118
11.3495
11.4201
11.3731
11.2476
11.0706
10.8614
10.6358
10.4064
10.2583
11.437
12.0229
12.3398
12.468
12.4538
12.3472
12.1836
11.9865
11.7692
11.5398
11.3052
11.5132
12.8153
13.3402
13.4728
13.4642
13.3512
13.1904
13.0057
12.8083
12.603
12.3877
12.1626
12.4514
14.3297
14.5955
14.463
14.3072
14.098
13.898
13.7153
13.5433
13.3754
13.1955
12.9957
-6.67541
-6.56609
-5.9811
-4.93451
-3.46594
-1.64448
0.411841
2.52619
4.50813
6.25316
7.18834
6.89826
1.05104
1.0354
1.22013
1.6145
2.22775
3.03526
3.99074
4.9852
5.92912
6.97817
7.46589
6.39571
2.10701
2.1303
2.32997
2.69561
3.20167
3.8277
4.52017
5.17263
5.69399
6.22139
6.38058
4.7321
4.31364
4.30516
4.37927
4.53723
4.77935
5.08997
5.42995
5.72148
5.86863
5.88579
5.77949
3.56322
5.81101
5.73279
5.70923
5.75544
5.86578
6.02266
6.19476
6.32221
6.31174
6.08822
5.78056
3.38857
7.09509
6.9674
6.89175
6.87854
6.91889
7.00541
7.11441
7.19826
7.18006
6.98838
6.64482
4.33299
8.2161
8.06041
7.95148
7.89768
7.90661
7.97846
8.10026
8.23301
8.3186
8.26316
8.08075
6.37531
9.23758
9.05788
8.92284
8.84838
8.85163
8.94662
9.13281
9.38476
9.67084
9.91085
10.1781
9.22791
10.1821
9.98263
9.82865
9.74041
9.7471
9.87878
10.1517
10.552
11.0859
11.7045
12.6037
12.9111
11.075
10.8612
10.6885
10.5836
10.5889
10.7513
11.1034
11.642
12.4229
13.4346
15.183
17.0885
11.9353
11.7114
11.5185
11.3895
11.3801
11.5495
11.9354
12.5545
13.5093
14.8314
17.4634
21.2618
12.7818
12.5521
12.3379
12.1753
12.1304
12.2649
12.6044
13.2273
14.1755
15.5405
18.3085
23.3174
0.00465993
-0.37508
-0.60432
-0.707462
-0.639216
-0.410806
-0.598074
-1.66856
-2.96624
-4.36393
-5.50665
-6.30427
0.725367
0.414458
0.308319
0.279965
0.614416
1.67011
2.26776
2.38281
2.2001
1.87244
1.53939
1.23262
2.02239
1.79394
2.0008
2.30292
2.58817
2.97037
3.15396
3.10531
2.94458
2.70851
2.45051
2.2325
3.50518
3.50599
3.85777
4.21787
4.51217
4.70029
4.75554
4.78363
4.73515
4.63565
4.50963
4.39367
4.60432
4.88111
5.32396
5.73327
6.04688
6.24911
6.34216
6.36666
6.31255
6.20604
6.06926
5.93076
5.57407
6.1348
6.65253
7.13103
7.46492
7.66893
7.75726
7.75841
7.68554
7.56234
7.41079
7.25248
6.61166
7.39072
7.95737
8.478
8.81804
9.0052
9.06529
9.03192
8.92757
8.77477
8.59448
8.40712
7.74031
8.7086
9.31569
9.81552
10.1191
10.2604
10.2737
10.1958
10.0537
9.86936
9.6629
9.45171
8.98682
10.0494
10.6722
11.1092
11.3421
11.4144
11.3692
11.2457
11.0708
10.8638
10.6404
10.4135
10.2477
11.4271
12.0128
12.3311
12.4609
12.4484
12.3436
12.1819
11.9868
11.7717
11.5445
11.3125
11.5032
12.8046
13.3304
13.4648
13.4579
13.3465
13.1873
13.0042
12.8085
12.6052
12.3923
12.1698
12.4424
14.319
14.5856
14.4557
14.302
14.0944
13.8955
13.714
13.5432
13.3769
13.1994
13.0024
-6.65867
-6.55181
-5.96996
-4.92746
-3.46314
-1.64575
0.407228
2.51938
4.50038
6.2462
7.18228
6.89199
1.06062
1.04408
1.22711
1.61894
2.22936
3.03383
3.98665
4.979
5.92161
6.97147
7.45976
6.389
2.11378
2.13674
2.33552
2.69974
3.20385
3.82759
4.51782
5.16819
5.68793
6.21507
6.37539
4.72594
4.31925
4.31097
4.38483
4.54189
4.78247
5.09105
5.42881
5.71839
5.86403
5.88016
5.77481
3.55753
5.81635
5.7391
5.71543
5.76132
5.8701
6.02532
6.19498
6.32066
6.30821
6.0836
5.77586
3.38264
7.10177
6.97473
6.89964
6.88541
6.92496
7.00905
7.11633
7.1974
7.17748
6.98337
6.63906
4.32459
8.22376
8.06919
7.96041
7.90645
7.91384
7.98391
8.10289
8.23328
8.31568
8.25768
8.07226
6.36421
9.24622
9.06771
8.93331
8.85848
8.86052
8.95308
9.13651
9.38514
9.66785
9.90439
10.1669
9.212
10.1916
9.99354
9.84027
9.75188
9.75713
9.88617
10.1558
10.5526
11.0827
11.6968
12.5903
12.8907
11.0848
10.8727
10.7009
10.5961
10.5998
10.7593
11.1077
11.6425
12.4191
13.4279
15.1679
17.0657
11.945
11.723
11.5312
11.4024
11.3915
11.5578
11.9403
12.555
13.506
14.8252
17.4506
21.2431
12.7909
12.5632
12.3504
12.188
12.1418
12.2735
12.6105
13.229
14.1732
15.5383
18.3014
23.3138
15.1259
15.6551
15.4429
15.0966
14.8627
14.6566
14.4804
14.3323
14.2097
14.1046
13.9804
13.8222
14.6268
14.5316
14.7038
14.781
14.8697
14.9024
14.888
14.8473
14.8116
14.7981
14.7421
14.6408
13.6742
13.7786
14.1014
14.4095
14.7151
14.9698
15.1527
15.2576
15.348
15.4291
15.4645
15.4675
12.5839
12.8569
13.3672
13.9732
14.5536
15.0341
15.4105
15.7029
15.9573
16.1759
16.3703
16.5789
13.6353
13.4039
13.1631
12.9499
12.842
12.8872
13.1119
13.6348
14.3557
15.3715
16.4209
18.7275
14.4918
14.2609
13.9855
13.7027
13.5007
13.4043
13.5077
13.8256
14.2314
14.9222
15.1495
15.9397
15.3882
15.155
14.8335
14.4445
14.1294
13.9279
13.8468
13.7759
13.7743
14.0779
13.9812
14.2532
16.687
16.3001
15.8524
15.3722
14.8989
14.3911
13.8804
13.4266
13.0418
12.9092
12.6122
12.7213
15.1134
15.6442
15.433
15.0862
14.8523
14.647
14.4718
14.3249
14.2034
14.0992
13.9759
13.8186
14.616
14.5223
14.6964
14.7744
14.8636
14.8965
14.8824
14.842
14.8067
14.7934
14.7375
14.6366
13.664
13.7706
14.0967
14.406
14.7122
14.9669
15.1499
15.2542
15.3444
15.4248
15.4597
15.4626
12.575
12.8507
13.3653
13.9742
14.5552
15.0345
15.4104
15.7028
15.956
16.173
16.3662
16.574
13.6328
13.4027
13.1631
12.9511
12.8439
12.8884
13.1128
13.6348
14.3535
15.3677
16.417
18.7219
14.488
14.258
13.9835
13.7018
13.5004
13.4036
13.508
13.8254
14.2305
14.922
15.1515
15.9422
15.3832
15.1504
14.8295
14.4412
14.1267
13.9251
13.8461
13.7763
13.7762
14.081
13.9869
14.2599
16.6809
16.2932
15.8458
15.3665
14.8936
14.3869
13.8784
13.4274
13.0461
12.9166
12.6226
12.732
15.1208
15.6519
15.4398
15.0923
14.8572
14.6506
14.4744
14.3267
14.2046
14.0994
13.9745
13.8154
14.6236
14.5294
14.7022
14.7785
14.8661
14.898
14.8834
14.843
14.8081
14.7941
14.7369
14.6344
13.6723
13.7774
14.1008
14.4079
14.7125
14.9668
15.1499
15.2548
15.3463
15.4267
15.4605
15.4618
12.5849
12.8572
13.3673
13.9724
14.5518
15.0319
15.4091
15.703
15.958
16.1762
16.3687
16.5747
13.6281
13.3965
13.1557
12.9432
12.8363
12.8825
13.1085
13.6327
14.3549
15.3715
16.4208
18.7271
14.4847
14.2532
13.9773
13.695
13.4937
13.3977
13.5035
13.8226
14.2294
14.9213
15.1493
15.9408
15.3815
15.1471
14.8246
14.4355
14.1214
13.9202
13.8408
13.7707
13.7712
14.0764
13.9816
14.256
16.6804
16.2915
15.8427
15.3626
14.8888
14.3811
13.8713
13.4196
13.0378
12.9083
12.6142
12.7262
15.1132
15.6438
15.4334
15.0872
14.8535
14.648
14.4725
14.3254
14.2037
14.0999
13.9775
13.8211
14.618
14.5244
14.6983
14.7758
14.8642
14.8965
14.882
14.8416
14.806
14.7934
14.7386
14.6391
13.6678
13.7745
14.0998
14.4079
14.7127
14.9662
15.1484
15.253
15.3428
15.4239
15.4604
15.4649
12.5813
12.857
13.37
13.9764
14.555
15.0326
15.4075
15.6991
15.9522
16.1705
16.3654
16.5756
13.6362
13.4066
13.1675
12.9554
12.8475
12.8917
13.1156
13.6372
14.3561
15.3721
16.4234
18.7304
14.4914
14.2622
13.9884
13.7065
13.5048
13.4083
13.511
13.8285
14.2339
14.9266
15.1578
15.9485
15.3865
15.1546
14.8346
14.4465
14.1316
13.9306
13.8506
13.7814
13.7807
14.0858
13.9919
14.2638
16.6844
16.2976
15.851
15.3719
14.9001
14.3944
13.8864
13.4345
13.0513
12.9206
12.6262
12.7333
12.4705
12.7637
13.2667
13.9009
14.5533
15.1068
15.5192
15.8462
16.0995
16.287
16.4267
16.6287
13.064
13.3001
13.7049
14.2136
14.7177
15.1748
15.5169
15.7607
15.9427
16.0536
16.0986
16.2485
13.5946
13.8045
14.147
14.553
14.964
15.3186
15.577
15.7529
15.8697
15.9235
15.9198
16.0282
14.0763
14.2612
14.5502
14.8827
15.2035
15.4602
15.6388
15.7536
15.8201
15.8313
15.7894
15.7919
16.9752
16.8411
16.4846
15.9258
15.3515
14.7886
14.2091
13.6506
13.1246
12.7775
12.4096
12.4162
16.698
16.6388
16.3901
15.9898
15.55
15.1084
14.638
14.1719
13.7252
13.3912
13.0803
13.0248
16.5911
16.5937
16.403
16.1045
15.748
15.3709
14.9693
14.5675
14.1816
13.8778
13.6206
13.5547
16.5589
16.5967
16.4426
16.2058
15.9117
15.591
15.2486
14.9046
14.575
14.309
14.0965
14.0341
12.4643
12.7599
13.2664
13.9033
14.5566
15.1085
15.5197
15.8465
16.098
16.2842
16.4225
16.6239
13.0595
13.2982
13.7057
14.216
14.7205
15.1765
15.5171
15.76
15.9407
16.0502
16.0943
16.2444
13.5929
13.8048
14.1486
14.5557
14.9668
15.3201
15.5769
15.7516
15.8671
15.9199
15.9155
16.0243
14.0769
14.2631
14.5533
14.8854
15.2055
15.461
15.6382
15.7519
15.8171
15.8274
15.7853
15.7886
16.9698
16.8346
16.4775
15.9194
15.3456
14.784
14.2063
13.6509
13.1285
12.7849
12.4197
12.4267
16.6936
16.6337
16.3843
15.9842
15.5448
15.1041
14.6352
14.1716
13.7277
13.3965
13.0881
13.0329
16.5867
16.589
16.3977
16.0994
15.7431
15.3665
14.9661
14.5663
14.1827
13.8813
13.6259
13.5604
16.5542
16.5919
16.4376
16.2008
15.9068
15.5864
15.245
14.9025
14.5747
14.3105
14.0998
14.0376
12.473
12.7653
13.2677
13.9009
14.5524
15.1049
15.5181
15.8468
16.1001
16.2875
16.4257
16.6256
13.0663
13.3024
13.7066
14.2144
14.7178
15.1743
15.5165
15.7612
15.9432
16.0537
16.0976
16.2463
13.5975
13.8072
14.1489
14.5543
14.9647
15.3188
15.577
15.7532
15.8699
15.9235
15.9191
16.0267
14.0794
14.264
14.5525
14.8839
15.2039
15.4602
15.6386
15.7536
15.8201
15.8312
15.7891
15.7917
16.97
16.8333
16.4753
15.9156
15.3412
14.7786
14.1995
13.643
13.1198
12.776
12.4114
12.4209
16.6938
16.6317
16.3819
15.9809
15.541
15.0997
14.6297
14.1652
13.7207
13.3894
13.0813
13.0282
16.5873
16.5872
16.3955
16.0965
15.7398
15.3628
14.9617
14.5612
14.1771
13.8756
13.6207
13.5567
16.5549
16.5909
16.4359
16.1983
15.904
15.5833
15.2414
14.8984
14.5702
14.3061
14.0956
14.0347
12.4705
12.7662
13.2712
13.9056
14.5563
15.1064
15.5167
15.8427
16.095
16.2816
16.4212
16.6247
13.0642
13.3029
13.7092
14.2176
14.7202
15.1748
15.5147
15.7571
15.9382
16.0483
16.0932
16.2447
13.5959
13.8078
14.1507
14.5564
14.9661
15.3186
15.5748
15.7492
15.8651
15.9181
15.9142
16.024
14.0782
14.2645
14.554
14.8852
15.2045
15.4595
15.6364
15.7499
15.8154
15.8257
15.7837
15.7871
16.9725
16.8382
16.4823
15.9253
15.3521
14.791
14.2141
13.6579
13.1337
12.7882
12.4221
12.4265
16.6958
16.6367
16.3882
15.9889
15.5499
15.1096
14.641
14.1767
13.7313
13.3983
13.0889
13.0322
16.5888
16.5919
16.4013
16.1034
15.7475
15.3712
14.9709
14.5703
14.1852
13.8821
13.6254
13.5584
16.5564
16.595
16.441
16.2045
15.9108
15.5907
15.2491
14.9058
14.5766
14.3107
14.0985
14.0349
14.533
14.6978
14.9216
15.1696
15.391
15.5578
15.6706
15.7393
15.7709
15.7535
15.6944
15.6279
14.9371
15.0667
15.2296
15.3935
15.526
15.6216
15.6825
15.7171
15.7289
15.7081
15.6626
15.6328
15.262
15.3603
15.4641
15.5556
15.6199
15.6594
15.6811
15.6919
15.6929
15.6769
15.6481
15.6371
15.5148
15.5805
15.6349
15.6697
15.681
15.678
15.6718
15.667
15.6638
15.656
15.6444
15.6457
15.7039
15.7409
15.7558
15.7471
15.7189
15.6856
15.6602
15.6461
15.6429
15.6438
15.6466
15.657
15.8422
15.8554
15.8401
15.7998
15.7435
15.6888
15.6509
15.6317
15.6302
15.6388
15.6529
15.6694
15.9431
15.9378
15.9008
15.838
15.7619
15.6926
15.6465
15.6243
15.6245
15.6389
15.6615
15.6815
16.0196
16.0006
15.948
15.8693
15.7792
15.6995
15.6477
15.6229
15.624
15.6426
15.6712
15.6923
16.0828
16.0536
15.9898
15.8995
15.7988
15.7108
15.6543
15.6259
15.6266
15.6476
15.6802
15.7012
16.1469
16.1115
16.0385
15.9375
15.8257
15.7283
15.6655
15.6313
15.6291
15.6511
15.6861
15.7073
16.2296
16.1924
16.1104
15.9947
15.8668
15.7545
15.6808
15.637
15.6303
15.6524
15.6899
15.7097
16.3011
16.2606
16.1717
16.0488
15.9106
15.7874
15.697
15.6479
15.6361
15.6556
15.6905
15.7095
16.7489
16.6602
16.4935
16.2982
16.0501
15.7757
15.484
15.1926
14.9174
14.6961
14.5293
14.4835
16.8429
16.7124
16.5529
16.3839
16.1694
15.9311
15.6808
15.4343
15.2079
15.0309
14.9084
14.8853
16.9165
16.7592
16.6163
16.4629
16.2725
16.0613
15.8436
15.6336
15.4479
15.3088
15.2223
15.2133
16.957
16.8006
16.6761
16.5335
16.361
16.17
15.9771
15.796
15.642
15.5329
15.4726
15.4731
16.9803
16.8349
16.7301
16.5951
16.4359
16.2598
16.0856
15.9265
15.7962
15.7089
15.6668
15.6724
16.9858
16.8601
16.7767
16.6475
16.4983
16.3333
16.1729
16.0306
15.9177
15.8454
15.8148
15.8215
16.979
16.8779
16.815
16.6907
16.5487
16.3923
16.2427
16.1132
16.0133
15.9511
15.9275
15.9326
16.964
16.8878
16.8446
16.7245
16.5875
16.4382
16.2976
16.1788
16.0892
16.0342
16.0149
16.0172
16.9447
16.8918
16.8641
16.7472
16.6134
16.4708
16.3388
16.2305
16.1502
16.101
16.0855
16.0858
16.9274
16.8906
16.868
16.7545
16.6229
16.4879
16.3663
16.2706
16.2009
16.1587
16.1496
16.1515
16.9186
16.8856
16.8539
16.7455
16.6166
16.4904
16.3816
16.3018
16.2455
16.2162
16.2188
16.2296
16.9177
16.8787
16.8383
16.7375
16.6129
16.4947
16.396
16.3235
16.2822
16.2696
16.2806
16.2986
14.5353
14.7006
14.9247
15.1719
15.3923
15.5578
15.6695
15.7372
15.7678
15.7497
15.6905
15.625
14.9397
15.0692
15.232
15.395
15.5265
15.6211
15.6812
15.7149
15.7258
15.7046
15.6591
15.6299
15.2647
15.3623
15.4653
15.5562
15.6198
15.6585
15.6796
15.6897
15.6901
15.6738
15.645
15.6344
15.517
15.5815
15.6352
15.6694
15.6802
15.6769
15.6703
15.665
15.6615
15.6535
15.6417
15.6433
15.7054
15.7411
15.7552
15.7461
15.7178
15.6843
15.6588
15.6445
15.6409
15.6417
15.6443
15.6548
15.8427
15.8547
15.8388
15.7982
15.742
15.6875
15.6496
15.6304
15.6287
15.637
15.6509
15.6674
15.9428
15.9363
15.8988
15.8359
15.7602
15.6911
15.6454
15.6231
15.6233
15.6375
15.6597
15.6796
16.0185
15.9984
15.9454
15.8668
15.7772
15.698
15.6466
15.6219
15.6229
15.6413
15.6695
15.6904
16.0808
16.0508
15.9865
15.8965
15.7965
15.7091
15.6532
15.625
15.6257
15.6463
15.6785
15.6992
16.1444
16.108
16.0347
15.934
15.823
15.7265
15.6643
15.6304
15.6282
15.6498
15.6844
15.7053
16.2264
16.1881
16.1057
15.9905
15.8636
15.7523
15.6794
15.636
15.6293
15.6512
15.688
15.7075
16.2974
16.2557
16.1665
16.0441
15.9069
15.7849
15.6954
15.6467
15.635
15.6542
15.6886
15.7073
16.7441
16.6556
16.4888
16.2934
16.0453
15.7711
15.4801
15.1898
14.916
14.6962
14.5305
14.485
16.8385
16.7081
16.5485
16.3794
16.1647
15.9264
15.6767
15.431
15.2056
15.0296
14.9082
14.8852
16.9124
16.7551
16.6121
16.4585
16.2679
16.0567
15.8393
15.63
15.445
15.3068
15.2211
15.2125
16.9533
16.7969
16.6722
16.5293
16.3566
16.1655
15.9729
15.7923
15.6388
15.5305
15.471
15.472
16.977
16.8315
16.7265
16.5911
16.4317
16.2555
16.0814
15.9228
15.793
15.7064
15.6649
15.6712
16.9828
16.8569
16.7733
16.6438
16.4943
16.3292
16.169
16.027
15.9146
15.8429
15.8131
15.8205
16.9763
16.875
16.8118
16.6871
16.5449
16.3884
16.2389
16.1098
16.0103
15.9488
15.926
15.932
16.9614
16.8852
16.8416
16.721
16.5839
16.4345
16.294
16.1756
16.0864
16.0321
16.0137
16.0169
16.9423
16.8893
16.8613
16.7439
16.6099
16.4672
16.3353
16.2275
16.1476
16.0993
16.0846
16.0859
16.925
16.8883
16.8654
16.7513
16.6195
16.4845
16.363
16.2677
16.1986
16.1572
16.149
16.152
16.9161
16.8833
16.8514
16.7424
16.6133
16.4871
16.3785
16.2991
16.2435
16.215
16.2187
16.2306
16.9152
16.8764
16.8359
16.7346
16.6098
16.4915
16.3931
16.321
16.2804
16.2688
16.2809
16.3001
14.5361
14.7004
14.9236
15.1704
15.3909
15.5572
15.6701
15.739
15.7709
15.7536
15.6945
15.6284
14.9395
15.0685
15.2307
15.3937
15.5254
15.6207
15.6818
15.7167
15.7288
15.7083
15.6629
15.6333
15.2639
15.3614
15.4644
15.5552
15.6189
15.6582
15.6801
15.6913
15.6928
15.6773
15.6487
15.6377
15.5161
15.5809
15.6346
15.6687
15.6796
15.6767
15.6707
15.6664
15.6638
15.6565
15.645
15.6465
15.7046
15.7408
15.755
15.7458
15.7173
15.6841
15.659
15.6456
15.643
15.6444
15.6473
15.6578
15.8424
15.8548
15.8389
15.7982
15.7417
15.6873
15.6498
15.6313
15.6304
15.6395
15.6536
15.6702
15.9429
15.9369
15.8994
15.8363
15.7601
15.6911
15.6454
15.624
15.6247
15.6397
15.6623
15.6822
16.019
15.9994
15.9464
15.8675
15.7773
15.698
15.6467
15.6226
15.6243
15.6434
15.6719
15.693
16.0817
16.0523
15.988
15.8976
15.7968
15.7095
15.6531
15.6259
15.6267
15.6484
15.6808
15.7018
16.1458
16.11
16.0366
15.9355
15.8238
15.727
15.6645
15.6312
15.6293
15.6518
15.6868
15.7078
16.2285
16.1908
16.1085
15.9926
15.8648
15.7531
15.6798
15.6368
15.6304
15.6531
15.6905
15.7101
16.3
16.259
16.1698
16.0467
15.9086
15.7859
15.696
15.6475
15.6362
15.6562
15.691
15.7099
16.744
16.6545
16.4872
16.2912
16.0428
15.7684
15.4771
15.1864
14.9124
14.6926
14.5272
14.4827
16.8378
16.7067
16.5467
16.3772
16.1624
15.924
15.674
15.4281
15.2027
15.0268
14.9054
14.8833
16.9113
16.7535
16.6102
16.4564
16.2657
16.0545
15.837
15.6275
15.4425
15.3043
15.2187
15.2105
16.9517
16.795
16.6702
16.5272
16.3544
16.1634
15.9707
15.79
15.6365
15.5281
15.4686
15.4699
16.975
16.8293
16.7243
16.589
16.4296
16.2534
16.0793
15.9206
15.7907
15.704
15.6625
15.6689
16.9806
16.8546
16.771
16.6415
16.4921
16.3271
16.1668
16.0247
15.9123
15.8406
15.8105
15.8179
16.9738
16.8725
16.8094
16.6848
16.5427
16.3862
16.2367
16.1075
16.0079
15.9463
15.9233
15.929
16.9587
16.8824
16.839
16.7186
16.5816
16.4323
16.2917
16.1733
16.0839
16.0294
16.0107
16.0136
16.9395
16.8864
16.8586
16.7415
16.6075
16.465
16.333
16.2251
16.145
16.0963
16.0814
16.0822
16.9221
16.8853
16.8626
16.7488
16.6171
16.4822
16.3606
16.2652
16.1958
16.1541
16.1455
16.148
16.9132
16.8802
16.8484
16.7398
16.6108
16.4847
16.3761
16.2965
16.2406
16.2116
16.2148
16.2261
16.9124
16.8734
16.8329
16.7319
16.6072
16.489
16.3905
16.3183
16.2773
16.2651
16.2767
16.2952
14.5352
14.7005
14.9243
15.1711
15.3912
15.5564
15.668
15.7356
15.7662
15.7479
15.6886
15.6228
14.9384
15.0681
15.2309
15.3939
15.5254
15.6199
15.6799
15.7135
15.7243
15.7028
15.6571
15.6278
15.2625
15.3605
15.4638
15.5549
15.6187
15.6575
15.6785
15.6885
15.6886
15.672
15.643
15.6323
15.5143
15.5794
15.6335
15.6681
15.6792
15.676
15.6693
15.6639
15.66
15.6517
15.6397
15.6413
15.7025
15.7388
15.7535
15.7448
15.7168
15.6834
15.6578
15.6433
15.6395
15.6399
15.6424
15.6529
15.8397
15.8523
15.837
15.7969
15.741
15.6866
15.6486
15.6292
15.6271
15.6352
15.649
15.6656
15.9398
15.9339
15.8971
15.8347
15.7592
15.6902
15.6443
15.6219
15.6217
15.6357
15.6579
15.6778
16.0156
15.996
15.9437
15.8656
15.7762
15.697
15.6455
15.6206
15.6214
15.6395
15.6677
15.6887
16.0779
16.0485
15.9849
15.8953
15.7956
15.7081
15.652
15.6236
15.6241
15.6446
15.6767
15.6975
16.1415
16.1058
16.033
15.9328
15.8221
15.7255
15.6632
15.629
15.6266
15.6481
15.6827
15.7036
16.2236
16.1859
16.1042
15.9894
15.8627
15.7514
15.6783
15.6347
15.6277
15.6494
15.6863
15.7059
16.2946
16.2536
16.165
16.0429
15.906
15.7839
15.6943
15.6454
15.6335
15.6525
15.6869
15.7057
16.7471
16.6588
16.4921
16.2969
16.049
15.7749
15.4838
15.1927
14.9175
14.6961
14.5289
14.482
16.8416
16.7113
16.5516
16.3826
16.1682
15.9301
15.6801
15.4336
15.207
15.0295
14.9067
14.8825
16.9156
16.7582
16.6152
16.4617
16.2712
16.0601
15.8426
15.6326
15.4464
15.3069
15.2202
15.2104
16.9564
16.8
16.6752
16.5325
16.3598
16.1689
15.976
15.7949
15.6404
15.5309
15.4706
15.4704
16.98
16.8344
16.7295
16.5942
16.4349
16.2588
16.0845
15.9253
15.7947
15.7072
15.6652
15.6702
16.9857
16.8598
16.7762
16.6468
16.4974
16.3323
16.1719
16.0295
15.9164
15.8441
15.8139
15.82
16.9791
16.8778
16.8148
16.6901
16.548
16.3915
16.2418
16.1122
16.0122
15.9503
15.9271
15.9319
16.9641
16.8879
16.8445
16.7241
16.5869
16.4375
16.2968
16.178
16.0885
16.0337
16.015
16.0172
16.9449
16.8919
16.8642
16.7469
16.6129
16.4702
16.3381
16.2299
16.1498
16.1009
16.086
16.0863
16.9276
16.8909
16.8682
16.7543
16.6225
16.4873
16.3657
16.27
16.2007
16.1589
16.1504
16.1525
16.9187
16.8859
16.8541
16.7453
16.6161
16.4899
16.3811
16.3013
16.2456
16.2165
16.2198
16.231
16.9179
16.879
16.8386
16.7374
16.6126
16.4942
16.3957
16.3232
16.2822
16.2703
16.2819
16.3004
)
;

boundaryField
{
    rotor
    {
        type            zeroGradient;
    }
    stator
    {
        type            zeroGradient;
    }
    front
    {
        type            empty;
    }
    back
    {
        type            empty;
    }
}


// ************************************************************************* //
