/*--------------------------------*- C++ -*----------------------------------*\
| =========                 |                                                 |
| \\      /  F ield         | OpenFOAM: The Open Source CFD Toolbox           |
|  \\    /   O peration     | Version:  v1912                                 |
|   \\  /    A nd           | Website:  www.openfoam.com                      |
|    \\/     M anipulation  |                                                 |
\*---------------------------------------------------------------------------*/
FoamFile
{
    version     2.0;
    format      ascii;
    class       surfaceScalarField;
    location    "100";
    object      phi;
}
// * * * * * * * * * * * * * * * * * * * * * * * * * * * * * * * * * * * * * //

dimensions      [0 3 -1 0 0 0 0];
oriented        oriented;


internalField   nonuniform List<scalar> 
5952
(
7.56745e-06
-7.87508e-06
1.24274e-05
-4.85724e-06
1.22817e-05
1.43053e-07
6.79025e-06
5.49893e-06
-7.25408e-06
1.40408e-05
-3.04192e-05
2.31653e-05
-5.26941e-05
2.22715e-05
-7.13451e-05
1.86467e-05
-8.69129e-05
1.55656e-05
-9.95217e-05
1.26045e-05
-0.000109494
9.97247e-06
7.22891e-06
-0.000116727
4.34462e-07
-8.31711e-06
-6.38441e-06
1.96079e-06
-2.04215e-05
1.41786e-05
-3.87657e-05
2.38431e-05
-5.45385e-05
2.98131e-05
-6.33884e-05
3.20139e-05
-7.0455e-05
2.93368e-05
-7.76933e-05
2.58823e-05
-8.448e-05
2.2351e-05
-9.05118e-05
1.86338e-05
-9.5303e-05
1.47629e-05
1.0868e-05
-9.8944e-05
-8.51488e-06
1.91539e-07
-2.09597e-05
1.4405e-05
-3.30843e-05
2.63022e-05
-4.35044e-05
3.42628e-05
-5.13288e-05
3.76368e-05
-5.67258e-05
3.74096e-05
-6.16451e-05
3.4255e-05
-6.64354e-05
3.06705e-05
-7.08266e-05
2.67411e-05
-7.47257e-05
2.25308e-05
-7.80549e-05
1.80914e-05
1.35285e-05
-8.07171e-05
-1.10353e-05
1.12239e-05
-2.11743e-05
2.45427e-05
-2.98186e-05
3.49457e-05
-3.64884e-05
4.09319e-05
-4.14142e-05
4.25618e-05
-4.5139e-05
4.11332e-05
-4.88061e-05
3.79209e-05
-5.23869e-05
3.42497e-05
-5.57664e-05
3.01196e-05
-5.88444e-05
2.56074e-05
-6.15204e-05
2.07666e-05
1.56539e-05
-6.3647e-05
-9.28163e-06
2.04996e-05
-1.67334e-05
3.19931e-05
-2.23136e-05
4.05246e-05
-2.64662e-05
4.50835e-05
-2.96077e-05
4.57022e-05
-3.23456e-05
4.38697e-05
-3.51587e-05
4.07329e-05
-3.79457e-05
3.70355e-05
-4.06406e-05
3.28135e-05
-4.31454e-05
2.81112e-05
-4.53427e-05
2.2963e-05
1.74108e-05
-4.71006e-05
-6.24067e-06
2.6735e-05
-1.09514e-05
3.67007e-05
-1.39617e-05
4.35322e-05
-1.60569e-05
4.71762e-05
-1.77581e-05
4.74013e-05
-1.95091e-05
4.56186e-05
-2.14938e-05
4.27162e-05
-2.36055e-05
3.91457e-05
-2.57413e-05
3.49483e-05
-2.77777e-05
3.01465e-05
-2.95845e-05
2.47688e-05
1.8842e-05
-3.10166e-05
-3.26318e-06
2.99887e-05
-5.18856e-06
3.86197e-05
-5.96827e-06
4.43075e-05
-5.99863e-06
4.72021e-05
-6.18746e-06
4.75861e-05
-6.85209e-06
4.62803e-05
-7.99818e-06
4.38599e-05
-9.45784e-06
4.06036e-05
-1.1064e-05
3.65531e-05
-1.26499e-05
3.17311e-05
-1.40596e-05
2.61776e-05
1.99387e-05
-1.51575e-05
-9.34159e-08
3.00736e-05
1.50695e-07
3.83693e-05
1.79593e-06
4.26555e-05
3.70044e-06
4.52921e-05
5.00773e-06
4.6274e-05
5.46529e-06
4.58194e-05
5.16442e-06
4.41581e-05
4.34521e-06
4.14212e-05
3.24817e-06
3.76486e-05
2.09096e-06
3.28873e-05
1.05405e-06
2.72134e-05
2.07149e-05
2.7699e-07
1.65027e-06
2.84111e-05
4.5449e-06
3.54665e-05
8.8514e-06
3.83415e-05
1.27483e-05
4.13886e-05
1.55946e-05
4.34224e-05
1.72184e-05
4.41915e-05
1.77843e-05
4.35892e-05
1.76062e-05
4.15969e-05
1.70049e-05
3.82478e-05
1.62596e-05
3.36308e-05
1.5585e-05
2.78864e-05
2.11631e-05
1.51356e-05
2.32371e-06
2.60857e-05
7.64552e-06
3.01381e-05
1.49182e-05
3.10634e-05
2.09897e-05
3.53112e-05
2.54444e-05
3.89636e-05
2.82454e-05
4.13868e-05
2.96688e-05
4.21634e-05
3.01156e-05
4.11475e-05
2.99888e-05
3.8373e-05
2.96384e-05
3.39794e-05
2.93226e-05
2.8201e-05
2.12704e-05
2.92139e-05
1.34111e-06
2.47495e-05
1.23872e-05
1.9092e-05
2.20556e-05
2.13917e-05
2.96417e-05
2.77213e-05
3.51509e-05
3.34507e-05
3.87421e-05
3.77925e-05
4.08073e-05
4.00952e-05
4.17657e-05
4.01868e-05
4.20418e-05
3.80945e-05
4.20456e-05
3.39732e-05
4.20709e-05
2.81738e-05
2.1025e-05
4.23142e-05
2.47011e-05
4.74618e-08
3.38699e-05
9.92486e-06
3.96337e-05
1.56281e-05
4.40926e-05
2.32627e-05
4.747e-05
3.00731e-05
5.00309e-05
3.52313e-05
5.17849e-05
3.83408e-05
5.27705e-05
3.92002e-05
5.32018e-05
3.76619e-05
5.34404e-05
3.37338e-05
5.37494e-05
2.78635e-05
5.43276e-05
2.04451e-05
-0.000121384
4.65782e-06
-0.000123378
1.99168e-06
-0.000122779
-5.97843e-07
-0.000119595
-3.18428e-06
-0.000113759
-5.8346e-06
-0.000105067
-8.6901e-06
-9.34194e-05
-1.16458e-05
-7.86619e-05
-1.4756e-05
-6.07216e-05
-1.79383e-05
-3.97321e-05
-2.09873e-05
-1.72075e-05
-2.25192e-05
-1.7206e-05
-0.000101283
6.99714e-06
-0.000102354
3.06144e-06
-0.000102017
-9.35144e-07
-0.000100097
-5.1037e-06
-9.63547e-05
-9.57594e-06
-9.06894e-05
-1.43538e-05
-8.29083e-05
-1.94254e-05
-7.28458e-05
-2.4817e-05
-6.02104e-05
-3.0572e-05
-4.45453e-05
-3.66499e-05
-2.56066e-05
-4.14551e-05
-4.28113e-05
-8.2556e-05
8.83584e-06
-8.34323e-05
3.9367e-06
-8.31398e-05
-1.2274e-06
-8.15032e-05
-6.74031e-06
-7.84175e-05
-1.26606e-05
-7.37678e-05
-1.90026e-05
-6.74147e-05
-2.57772e-05
-5.92159e-05
-3.30144e-05
-4.90412e-05
-4.07446e-05
-3.67173e-05
-4.89719e-05
-2.09147e-05
-5.72543e-05
-6.3724e-05
-6.5066e-05
1.02544e-05
-6.56336e-05
4.50341e-06
-6.52204e-05
-1.64085e-06
-6.37628e-05
-8.19821e-06
-6.11814e-05
-1.52418e-05
-5.74182e-05
-2.27654e-05
-5.24263e-05
-3.07686e-05
-4.61551e-05
-3.92838e-05
-3.84976e-05
-4.84e-05
-2.92119e-05
-5.82541e-05
-1.73059e-05
-6.91559e-05
-8.10298e-05
-4.82616e-05
1.14146e-05
-4.87118e-05
4.95253e-06
-4.83766e-05
-1.97667e-06
-4.72111e-05
-9.36452e-06
-4.51715e-05
-1.72811e-05
-4.22337e-05
-2.57034e-05
-3.83977e-05
-3.46029e-05
-3.3687e-05
-4.39936e-05
-2.80656e-05
-5.40176e-05
-2.12564e-05
-6.50599e-05
-1.27046e-05
-7.77081e-05
-9.3734e-05
-3.19401e-05
1.2337e-05
-3.23044e-05
5.31637e-06
-3.20714e-05
-2.21087e-06
-3.117e-05
-1.02651e-05
-2.95972e-05
-1.88544e-05
-2.73619e-05
-2.79361e-05
-2.45314e-05
-3.74336e-05
-2.12221e-05
-4.72986e-05
-1.75551e-05
-5.76844e-05
-1.36209e-05
-6.89931e-05
-8.54453e-06
-8.27824e-05
-0.000102279
-1.58767e-05
1.30559e-05
-1.61462e-05
5.58488e-06
-1.59185e-05
-2.43745e-06
-1.51788e-05
-1.10049e-05
-1.39311e-05
-2.00989e-05
-1.22264e-05
-2.96398e-05
-1.02001e-05
-3.94553e-05
-8.10234e-06
-4.93958e-05
-6.19844e-06
-5.95835e-05
-4.65147e-06
-7.05349e-05
-3.0927e-06
-8.43398e-05
-0.000105368
-1.74851e-07
1.3507e-05
-2.40111e-07
5.65014e-06
1.06592e-07
-2.78393e-06
8.62358e-07
-1.17585e-05
2.00176e-06
-2.12361e-05
3.43574e-06
-3.10694e-05
4.91779e-06
-4.0934e-05
6.02189e-06
-5.04946e-05
6.26384e-06
-5.98183e-05
5.16698e-06
-6.94344e-05
2.63114e-06
-8.17953e-05
-0.00010273
1.50039e-05
1.36376e-05
1.52502e-05
5.40311e-06
1.58845e-05
-3.41752e-06
1.68935e-05
-1.27661e-05
1.82422e-05
-2.25815e-05
1.97907e-05
-3.26135e-05
2.11438e-05
-4.22819e-05
2.16403e-05
-5.09838e-05
2.05462e-05
-5.872e-05
1.69925e-05
-6.5867e-05
1.04805e-05
-7.52719e-05
-9.22466e-05
2.94549e-05
1.33956e-05
3.0113e-05
4.74448e-06
3.12199e-05
-4.52426e-06
3.27721e-05
-1.43169e-05
3.4731e-05
-2.4537e-05
3.68837e-05
-3.47619e-05
3.86158e-05
-4.4008e-05
3.89857e-05
-5.13492e-05
3.7048e-05
-5.67709e-05
3.14821e-05
-6.02994e-05
2.06601e-05
-6.44432e-05
-7.15755e-05
4.29723e-05
1.27354e-05
4.41598e-05
3.55497e-06
4.5974e-05
-6.33918e-06
4.84333e-05
-1.67756e-05
5.14833e-05
-2.75851e-05
5.47723e-05
-3.80474e-05
5.73542e-05
-4.65854e-05
5.81218e-05
-5.21103e-05
5.60664e-05
-5.47159e-05
4.93754e-05
-5.35985e-05
3.40053e-05
-4.90651e-05
-3.75717e-05
5.54626e-05
1.15982e-05
5.73753e-05
1.64053e-06
6.02534e-05
-9.2189e-06
6.41034e-05
-2.06259e-05
6.87639e-05
-3.22449e-05
7.35899e-05
-4.28715e-05
7.71712e-05
-5.01648e-05
7.87169e-05
-5.36549e-05
7.7367e-05
-5.33604e-05
7.08943e-05
-4.71313e-05
5.41293e-05
-3.23006e-05
1.65608e-05
7.71699e-06
-7.72338e-06
1.24708e-05
-4.75255e-06
1.22641e-05
1.9712e-07
6.71621e-06
5.55214e-06
-7.40293e-06
1.41131e-05
-3.05516e-05
2.31485e-05
-5.27262e-05
2.21713e-05
-7.13036e-05
1.85737e-05
-8.67953e-05
1.54899e-05
-9.93462e-05
1.25472e-05
-0.000109269
9.9222e-06
7.19177e-06
-0.000116464
4.39967e-07
-8.17328e-06
-6.38381e-06
2.06861e-06
-2.0445e-05
1.42549e-05
-3.87685e-05
2.38747e-05
-5.44626e-05
2.9806e-05
-6.32516e-05
3.19358e-05
-7.03126e-05
2.92311e-05
-7.75247e-05
2.57832e-05
-8.42881e-05
2.22521e-05
-9.0292e-05
1.85486e-05
-9.50612e-05
1.46906e-05
1.08129e-05
-9.86844e-05
-8.48039e-06
2.98892e-07
-2.09224e-05
1.45083e-05
-3.30388e-05
2.63688e-05
-4.34336e-05
3.42684e-05
-5.12178e-05
3.75887e-05
-5.65934e-05
3.73099e-05
-6.14997e-05
3.41359e-05
-6.62707e-05
3.0552e-05
-7.06471e-05
2.66272e-05
-7.45305e-05
2.24299e-05
-7.78469e-05
1.8006e-05
1.34635e-05
-8.04994e-05
-1.10244e-05
1.1318e-05
-2.11481e-05
2.46293e-05
-2.97724e-05
3.49913e-05
-3.64181e-05
4.09125e-05
-4.13196e-05
4.24886e-05
-4.50335e-05
4.10223e-05
-4.86951e-05
3.77956e-05
-5.22669e-05
3.41221e-05
-5.56369e-05
2.99956e-05
-5.87032e-05
2.54946e-05
-6.13683e-05
2.067e-05
1.5579e-05
-6.34853e-05
-9.27323e-06
2.05838e-05
-1.67156e-05
3.20704e-05
-2.22824e-05
4.05559e-05
-2.64218e-05
4.50501e-05
-2.95534e-05
4.56186e-05
-3.22887e-05
4.37553e-05
-3.50992e-05
4.0605e-05
-3.78815e-05
3.69023e-05
-4.05688e-05
3.26819e-05
-4.30639e-05
2.79879e-05
-4.52503e-05
2.2855e-05
1.73239e-05
-4.69966e-05
-6.23358e-06
2.68137e-05
-1.09427e-05
3.67764e-05
-1.39482e-05
4.35577e-05
-1.60406e-05
4.71403e-05
-1.7744e-05
4.73184e-05
-1.94984e-05
4.55081e-05
-2.14866e-05
4.25902e-05
-2.35972e-05
3.90117e-05
-2.57295e-05
3.48119e-05
-2.77586e-05
3.00155e-05
-2.95562e-05
2.4651e-05
1.87467e-05
-3.09811e-05
-3.26326e-06
3.007e-05
-5.18335e-06
3.86903e-05
-5.96444e-06
4.43352e-05
-6.00329e-06
4.71736e-05
-6.20402e-06
4.75145e-05
-6.8813e-06
4.61812e-05
-8.03669e-06
4.37426e-05
-9.50178e-06
4.04739e-05
-1.11091e-05
3.64171e-05
-1.26924e-05
3.15969e-05
-1.40979e-05
2.60546e-05
1.98381e-05
-1.51906e-05
-7.97559e-08
3.01379e-05
1.61418e-07
3.8442e-05
1.79768e-06
4.26902e-05
3.68469e-06
4.52795e-05
4.97077e-06
4.6223e-05
5.40725e-06
4.57397e-05
5.08987e-06
4.40564e-05
4.25876e-06
4.13019e-05
3.15533e-06
3.75185e-05
1.99549e-06
3.27548e-05
9.59023e-07
2.70895e-05
2.06105e-05
1.8509e-07
1.65974e-06
2.84671e-05
4.56303e-06
3.55284e-05
8.86077e-06
3.83885e-05
1.27336e-05
4.1399e-05
1.55504e-05
4.33995e-05
1.71455e-05
4.41389e-05
1.76873e-05
4.35102e-05
1.7491e-05
4.14947e-05
1.68775e-05
3.81291e-05
1.6125e-05
3.35048e-05
1.54475e-05
2.7765e-05
2.10574e-05
1.49989e-05
2.36138e-06
2.60932e-05
7.68856e-06
3.01979e-05
1.49413e-05
3.11225e-05
2.09851e-05
3.53501e-05
2.54046e-05
3.89739e-05
2.81712e-05
4.13677e-05
2.95637e-05
4.21134e-05
2.99866e-05
4.10688e-05
2.9842e-05
3.82709e-05
2.94804e-05
3.38645e-05
2.91581e-05
2.80853e-05
2.11662e-05
2.90478e-05
1.34899e-06
2.47389e-05
1.2398e-05
1.91384e-05
2.2066e-05
2.14579e-05
2.96323e-05
2.77774e-05
3.51128e-05
3.34885e-05
3.8671e-05
3.78049e-05
4.07046e-05
4.0076e-05
4.16357e-05
4.01346e-05
4.18907e-05
3.80128e-05
4.18799e-05
3.38727e-05
4.1896e-05
2.80667e-05
2.09243e-05
4.21354e-05
2.46305e-05
1.05999e-07
3.38016e-05
9.97207e-06
3.95753e-05
1.56761e-05
4.40353e-05
2.33168e-05
4.74049e-05
3.01184e-05
4.99503e-05
3.52582e-05
5.16834e-05
3.83426e-05
5.2646e-05
3.91704e-05
5.30576e-05
3.76004e-05
5.32804e-05
3.36483e-05
5.35791e-05
2.77666e-05
5.41522e-05
2.03487e-05
-0.000121096
4.6316e-06
-0.000123076
1.97779e-06
-0.000122477
-5.99817e-07
-0.000119304
-3.1736e-06
-0.000113489
-5.81489e-06
-0.000104827
-8.66085e-06
-9.32148e-05
-1.1612e-05
-7.84966e-05
-1.47176e-05
-6.05965e-05
-1.78994e-05
-3.96473e-05
-2.09483e-05
-1.71653e-05
-2.24798e-05
-1.71648e-05
-0.000101014
6.96028e-06
-0.000102081
3.04399e-06
-0.000101749
-9.33317e-07
-9.984e-05
-5.08257e-06
-9.61173e-05
-9.53745e-06
-9.04762e-05
-1.43012e-05
-8.27253e-05
-1.93625e-05
-7.26955e-05
-2.47467e-05
-6.00962e-05
-3.04982e-05
-4.44677e-05
-3.65757e-05
-2.55691e-05
-4.13775e-05
-4.27332e-05
-8.23326e-05
8.79281e-06
-8.3208e-05
3.91797e-06
-8.29202e-05
-1.22132e-06
-8.12941e-05
-6.70922e-06
-7.82248e-05
-1.26063e-05
-7.35965e-05
-1.89294e-05
-6.72684e-05
-2.56899e-05
-5.90977e-05
-3.29174e-05
-4.89529e-05
-4.0642e-05
-3.66594e-05
-4.88686e-05
-2.08864e-05
-5.71487e-05
-6.36182e-05
-6.4898e-05
1.02046e-05
-6.54642e-05
4.48289e-06
-6.50542e-05
-1.63184e-06
-6.36041e-05
-8.16013e-06
-6.10353e-05
-1.5175e-05
-5.72896e-05
-2.26755e-05
-5.23187e-05
-3.06608e-05
-4.6071e-05
-3.91652e-05
-3.84368e-05
-4.82749e-05
-2.91754e-05
-5.81287e-05
-1.72865e-05
-6.90337e-05
-8.09048e-05
-4.81507e-05
1.13569e-05
-4.85974e-05
4.92904e-06
-4.82657e-05
-1.96571e-06
-4.71054e-05
-9.31983e-06
-4.50769e-05
-1.72058e-05
-4.21512e-05
-2.55994e-05
-3.83336e-05
-3.44807e-05
-3.36383e-05
-4.38572e-05
-2.80359e-05
-5.38786e-05
-2.12387e-05
-6.4919e-05
-1.26993e-05
-7.75759e-05
-9.36018e-05
-3.18996e-05
1.22748e-05
-3.22601e-05
5.28686e-06
-3.20233e-05
-2.2014e-06
-3.11259e-05
-1.02199e-05
-2.9556e-05
-1.87727e-05
-2.73318e-05
-2.78261e-05
-2.45086e-05
-3.72998e-05
-2.12133e-05
-4.71546e-05
-1.75507e-05
-5.75346e-05
-1.36253e-05
-6.88508e-05
-8.54815e-06
-8.26464e-05
-0.000102151
-1.59034e-05
1.2986e-05
-1.61674e-05
5.55075e-06
-1.59364e-05
-2.43325e-06
-1.51932e-05
-1.09612e-05
-1.3947e-05
-2.00188e-05
-1.22434e-05
-2.95264e-05
-1.0223e-05
-3.93195e-05
-8.1265e-06
-4.92467e-05
-6.22786e-06
-5.94353e-05
-4.67771e-06
-7.03939e-05
-3.11258e-06
-8.42123e-05
-0.000105261
-2.60913e-07
1.34312e-05
-3.20807e-07
5.61014e-06
3.2058e-08
-2.78536e-06
7.93085e-07
-1.1721e-05
1.9374e-06
-2.11602e-05
3.37365e-06
-3.09598e-05
4.85814e-06
-4.07996e-05
5.96414e-06
-5.03495e-05
6.21081e-06
-5.96748e-05
5.12311e-06
-6.93031e-05
2.60032e-06
-8.16853e-05
-0.000102651
1.48705e-05
1.35582e-05
1.51225e-05
5.35768e-06
1.57639e-05
-3.42622e-06
1.67813e-05
-1.27366e-05
1.81382e-05
-2.25142e-05
1.96937e-05
-3.25109e-05
2.10531e-05
-4.21537e-05
2.1557e-05
-5.08458e-05
2.04735e-05
-5.85858e-05
1.69306e-05
-6.5754e-05
1.04449e-05
-7.51787e-05
-9.22044e-05
2.92904e-05
1.33143e-05
2.99541e-05
4.69352e-06
3.10689e-05
-4.54104e-06
3.26316e-05
-1.42974e-05
3.4601e-05
-2.4481e-05
3.67635e-05
-3.46685e-05
3.85042e-05
-4.38889e-05
3.88857e-05
-5.12219e-05
3.69583e-05
-5.66516e-05
3.14134e-05
-6.01964e-05
2.06124e-05
-6.43793e-05
-7.15756e-05
4.27944e-05
1.26528e-05
4.39873e-05
3.49836e-06
4.58105e-05
-6.36464e-06
4.82812e-05
-1.67677e-05
5.13433e-05
-2.7541e-05
5.46421e-05
-3.79642e-05
5.72333e-05
-4.64757e-05
5.80128e-05
-5.19958e-05
5.59741e-05
-5.46083e-05
4.92958e-05
-5.35191e-05
3.39587e-05
-4.90218e-05
-3.76144e-05
5.5288e-05
1.15146e-05
5.7207e-05
1.5776e-06
6.00951e-05
-9.25437e-06
6.3957e-05
-2.06303e-05
6.86293e-05
-3.22124e-05
7.34641e-05
-4.27978e-05
7.70551e-05
-5.00647e-05
7.8613e-05
-5.35526e-05
7.72729e-05
-5.32679e-05
7.08165e-05
-4.70584e-05
5.40733e-05
-3.22821e-05
1.6464e-05
7.72543e-06
-7.73366e-06
1.24888e-05
-4.76141e-06
1.22807e-05
1.95694e-07
6.72399e-06
5.56103e-06
-7.42628e-06
1.41412e-05
-3.06172e-05
2.31899e-05
-5.28355e-05
2.2213e-05
-7.14506e-05
1.86105e-05
-8.69749e-05
1.55213e-05
-9.95517e-05
1.25723e-05
-0.000109493
9.94079e-06
7.20365e-06
-0.000116701
4.49122e-07
-8.19333e-06
-6.37801e-06
2.06321e-06
-2.04561e-05
1.42697e-05
-3.88097e-05
2.39135e-05
-5.45348e-05
2.98646e-05
-6.33491e-05
3.20022e-05
-7.04326e-05
2.92944e-05
-7.76664e-05
2.5841e-05
-8.44494e-05
2.23025e-05
-9.04692e-05
1.85894e-05
-9.52505e-05
1.47209e-05
1.08324e-05
-9.88815e-05
-8.48262e-06
2.83054e-07
-2.09379e-05
1.45166e-05
-3.30748e-05
2.64045e-05
-4.34925e-05
3.43301e-05
-5.1297e-05
3.76673e-05
-5.66896e-05
3.73928e-05
-6.16128e-05
3.42154e-05
-6.63998e-05
3.06253e-05
-7.07907e-05
2.66916e-05
-7.46867e-05
2.24828e-05
-7.8013e-05
1.8046e-05
1.34895e-05
-8.06721e-05
-1.10356e-05
1.13116e-05
-2.11702e-05
2.46496e-05
-2.98084e-05
3.50405e-05
-3.64682e-05
4.09883e-05
-4.13826e-05
4.25794e-05
-4.5109e-05
4.11168e-05
-4.87843e-05
3.7888e-05
-5.23703e-05
3.42085e-05
-5.57535e-05
3.00727e-05
-5.88319e-05
2.5559e-05
-6.15067e-05
2.07194e-05
1.56115e-05
-6.36306e-05
-9.28848e-06
2.05956e-05
-1.67344e-05
3.20923e-05
-2.23058e-05
4.06093e-05
-2.64521e-05
4.5132e-05
-2.95922e-05
4.57163e-05
-3.23371e-05
4.38584e-05
-3.51594e-05
4.0707e-05
-3.79535e-05
3.69997e-05
-4.06535e-05
3.277e-05
-4.316e-05
2.80632e-05
-4.53566e-05
2.29138e-05
1.7364e-05
-4.7111e-05
-6.27222e-06
2.68599e-05
-1.09448e-05
3.67611e-05
-1.39503e-05
4.36107e-05
-1.60471e-05
4.72246e-05
-1.7755e-05
4.74195e-05
-1.95171e-05
4.56156e-05
-2.15135e-05
4.26992e-05
-2.3635e-05
3.91169e-05
-2.57777e-05
3.49094e-05
-2.78178e-05
3.01e-05
-2.96249e-05
2.47186e-05
1.87926e-05
-3.10554e-05
-3.04782e-06
2.98976e-05
-5.14427e-06
3.88513e-05
-5.94868e-06
4.44097e-05
-5.98833e-06
4.72585e-05
-6.18953e-06
4.76138e-05
-6.86941e-06
4.62898e-05
-8.03086e-06
4.38545e-05
-9.50332e-06
4.05846e-05
-1.11193e-05
3.65208e-05
-1.2711e-05
3.16883e-05
-1.4123e-05
2.61281e-05
1.98877e-05
-1.52205e-05
-4.859e-07
3.03753e-05
1.08395e-07
3.82498e-05
1.81105e-06
4.27014e-05
3.71582e-06
4.5346e-05
5.00867e-06
4.63145e-05
5.44654e-06
4.58446e-05
5.12697e-06
4.41681e-05
4.2912e-06
4.14145e-05
3.18185e-06
3.76255e-05
2.01648e-06
3.285e-05
9.75602e-07
2.7166e-05
2.06632e-05
1.98065e-07
2.10596e-06
2.82596e-05
4.65451e-06
3.56946e-05
8.90655e-06
3.84425e-05
1.27827e-05
4.14628e-05
1.56077e-05
4.34822e-05
1.7208e-05
4.42371e-05
1.77509e-05
4.36183e-05
1.75529e-05
4.16061e-05
1.69366e-05
3.82365e-05
1.6181e-05
3.36012e-05
1.55008e-05
2.78428e-05
2.11116e-05
1.50499e-05
2.14457e-06
2.61082e-05
7.68107e-06
3.01542e-05
1.49785e-05
3.11394e-05
2.10427e-05
3.53938e-05
2.54759e-05
3.90426e-05
2.82513e-05
4.14562e-05
2.96481e-05
4.22151e-05
3.00722e-05
4.11764e-05
2.99277e-05
3.83762e-05
2.95656e-05
3.39593e-05
2.92427e-05
2.81629e-05
2.12203e-05
2.91313e-05
1.3834e-06
2.47279e-05
1.24282e-05
1.9109e-05
2.21143e-05
2.14517e-05
2.97011e-05
2.78032e-05
3.5196e-05
3.35436e-05
3.87641e-05
3.7883e-05
4.08037e-05
4.01701e-05
4.17381e-05
4.02372e-05
4.19955e-05
3.8114e-05
4.1987e-05
3.3964e-05
4.20046e-05
2.81421e-05
2.0977e-05
4.22448e-05
2.4665e-05
6.53652e-08
3.38489e-05
9.92686e-06
3.96399e-05
1.5662e-05
4.41141e-05
2.33292e-05
4.74975e-05
3.01601e-05
5.00531e-05
3.53258e-05
5.17921e-05
3.84298e-05
5.27583e-05
3.92683e-05
5.31735e-05
3.76967e-05
5.34012e-05
3.37348e-05
5.37033e-05
2.78381e-05
5.42785e-05
2.03994e-05
-0.000121337
4.63641e-06
-0.000123316
1.97582e-06
-0.000122707
-6.08238e-07
-0.000119519
-3.18881e-06
-0.000113682
-5.83604e-06
-0.000104996
-8.68627e-06
-9.33551e-05
-1.16401e-05
-7.86084e-05
-1.47466e-05
-6.06803e-05
-1.79275e-05
-3.97053e-05
-2.09746e-05
-1.71975e-05
-2.25064e-05
-1.71971e-05
-0.000101215
6.9687e-06
-0.000102281
3.04106e-06
-0.000101942
-9.47788e-07
-0.000100023
-5.10886e-06
-9.6285e-05
-9.57389e-06
-9.06252e-05
-1.43455e-05
-8.28527e-05
-1.94125e-05
-7.27995e-05
-2.47996e-05
-6.01755e-05
-3.05514e-05
-4.45218e-05
-3.66275e-05
-2.55943e-05
-4.14333e-05
-4.27908e-05
-8.25082e-05
8.804e-06
-8.33821e-05
3.91346e-06
-8.30886e-05
-1.24183e-06
-8.14528e-05
-6.74543e-06
-7.83699e-05
-1.26566e-05
-7.37247e-05
-1.89909e-05
-6.73775e-05
-2.57596e-05
-5.91851e-05
-3.2992e-05
-4.90173e-05
-4.07183e-05
-3.67005e-05
-4.89436e-05
-2.09061e-05
-5.72257e-05
-6.36956e-05
-6.50464e-05
1.02188e-05
-6.56112e-05
4.47682e-06
-6.5196e-05
-1.65786e-06
-6.3737e-05
-8.20543e-06
-6.11553e-05
-1.52387e-05
-5.73932e-05
-2.27533e-05
-5.24037e-05
-3.07495e-05
-4.6136e-05
-3.9259e-05
-3.84823e-05
-4.83711e-05
-2.92009e-05
-5.82226e-05
-1.72995e-05
-6.91239e-05
-8.09955e-05
-4.8268e-05
1.13743e-05
-4.87145e-05
4.92174e-06
-4.83766e-05
-1.9969e-06
-4.72083e-05
-9.3751e-06
-4.51662e-05
-1.72812e-05
-4.22267e-05
-2.56936e-05
-3.83902e-05
-3.45851e-05
-3.36797e-05
-4.39694e-05
-2.80589e-05
-5.39889e-05
-2.12513e-05
-6.50276e-05
-1.27019e-05
-7.76746e-05
-9.36973e-05
-3.19762e-05
1.22933e-05
-3.23357e-05
5.28008e-06
-3.2097e-05
-2.23728e-06
-3.11904e-05
-1.02815e-05
-2.96123e-05
-1.88602e-05
-2.73722e-05
-2.79318e-05
-2.45376e-05
-3.74203e-05
-2.12254e-05
-4.72781e-05
-1.75562e-05
-5.76584e-05
-1.36206e-05
-6.89629e-05
-8.54444e-06
-8.27495e-05
-0.000102242
-1.59364e-05
1.30081e-05
-1.62009e-05
5.54294e-06
-1.59665e-05
-2.47128e-06
-1.52191e-05
-1.10295e-05
-1.39634e-05
-2.01134e-05
-1.22506e-05
-2.96439e-05
-1.02173e-05
-3.94497e-05
-8.11353e-06
-4.93817e-05
-6.20539e-06
-5.95624e-05
-4.6556e-06
-7.05079e-05
-3.09541e-06
-8.43086e-05
-0.000105335
-2.50973e-07
1.34555e-05
-3.10808e-07
5.602e-06
4.36524e-08
-2.82619e-06
8.08892e-07
-1.17932e-05
1.9589e-06
-2.12618e-05
3.40367e-06
-3.10849e-05
4.89531e-06
-4.09385e-05
6.00736e-06
-5.04889e-05
6.25536e-06
-5.98034e-05
5.16201e-06
-6.94114e-05
2.62872e-06
-8.1767e-05
-0.000102699
1.49206e-05
1.35826e-05
1.51728e-05
5.34829e-06
1.58159e-05
-3.46932e-06
1.68361e-05
-1.28126e-05
1.81976e-05
-2.26206e-05
1.97589e-05
-3.26424e-05
2.1123e-05
-4.22977e-05
2.16281e-05
-5.09871e-05
2.05401e-05
-5.87117e-05
1.69892e-05
-6.58469e-05
1.0479e-05
-7.52454e-05
-9.2217e-05
2.93745e-05
1.33375e-05
3.00391e-05
4.68234e-06
3.1156e-05
-4.58684e-06
3.27211e-05
-1.4377e-05
3.46946e-05
-2.45914e-05
3.68612e-05
-3.48053e-05
3.86037e-05
-4.40348e-05
3.89813e-05
-5.13606e-05
3.70481e-05
-5.67673e-05
3.14827e-05
-6.02799e-05
2.06596e-05
-6.44158e-05
-7.15462e-05
4.29048e-05
1.26743e-05
4.40996e-05
3.48472e-06
4.59252e-05
-6.41398e-06
4.8399e-05
-1.68508e-05
5.14647e-05
-2.76559e-05
5.4767e-05
-3.81047e-05
5.73561e-05
-4.66198e-05
5.81289e-05
-5.21272e-05
5.60751e-05
-5.47141e-05
4.938e-05
-5.3575e-05
3.40062e-05
-4.90338e-05
-3.75417e-05
5.54165e-05
1.15334e-05
5.73383e-05
1.56042e-06
6.02296e-05
-9.30771e-06
6.40951e-05
-2.07173e-05
6.87711e-05
-3.23319e-05
7.36073e-05
-4.29395e-05
7.71911e-05
-5.02022e-05
7.87373e-05
-5.36726e-05
7.73818e-05
-5.3353e-05
7.08988e-05
-4.70977e-05
5.41261e-05
-3.22618e-05
1.65878e-05
7.72349e-06
-7.72933e-06
1.2505e-05
-4.7801e-06
1.23279e-05
1.67981e-07
6.80993e-06
5.52245e-06
-7.23796e-06
1.40421e-05
-3.03925e-05
2.31546e-05
-5.26478e-05
2.22522e-05
-7.12773e-05
1.86259e-05
-8.68222e-05
1.55432e-05
-9.94108e-05
1.2585e-05
-0.000109366
9.95502e-06
7.21588e-06
-0.000116586
4.77295e-07
-8.21595e-06
-6.30179e-06
1.9967e-06
-2.03268e-05
1.41897e-05
-3.86692e-05
2.3864e-05
-5.44514e-05
2.98234e-05
-6.33014e-05
3.20029e-05
-7.03643e-05
2.9314e-05
-7.75924e-05
2.58514e-05
-8.43674e-05
2.23171e-05
-9.0386e-05
1.86012e-05
-9.51657e-05
1.47339e-05
1.08456e-05
-9.87974e-05
-8.43072e-06
2.0707e-07
-2.08693e-05
1.44332e-05
-3.30176e-05
2.63358e-05
-4.34441e-05
3.42895e-05
-5.12618e-05
3.76396e-05
-5.66494e-05
3.73891e-05
-6.15589e-05
3.42221e-05
-6.63376e-05
3.06281e-05
-7.07166e-05
2.66948e-05
-7.46028e-05
2.24853e-05
-7.79204e-05
1.80505e-05
1.34967e-05
-8.05733e-05
-1.10168e-05
1.12189e-05
-2.11483e-05
2.4562e-05
-2.97913e-05
3.49772e-05
-3.64544e-05
4.09512e-05
-4.13709e-05
4.25546e-05
-4.50866e-05
4.11034e-05
-4.87418e-05
3.78755e-05
-5.23092e-05
3.41939e-05
-5.56748e-05
3.0059e-05
-5.87384e-05
2.55474e-05
-6.14015e-05
2.07125e-05
1.56111e-05
-6.35174e-05
-9.27524e-06
2.0487e-05
-1.67266e-05
3.20122e-05
-2.23048e-05
4.05533e-05
-2.64513e-05
4.5096e-05
-2.95853e-05
4.56873e-05
-3.2315e-05
4.3831e-05
-3.51174e-05
4.06769e-05
-3.78926e-05
3.6967e-05
-4.05734e-05
3.2739e-05
-4.30638e-05
2.80361e-05
-4.5247e-05
2.28943e-05
1.73544e-05
-4.69917e-05
-6.2428e-06
2.67259e-05
-1.09551e-05
3.67216e-05
-1.39645e-05
4.35589e-05
-1.60562e-05
4.71857e-05
-1.77548e-05
4.73822e-05
-1.95001e-05
4.55749e-05
-2.14784e-05
4.26522e-05
-2.358e-05
3.90675e-05
-2.57045e-05
3.48613e-05
-2.77276e-05
3.00578e-05
-2.95209e-05
2.46861e-05
1.87743e-05
-3.09429e-05
-3.26422e-06
2.99832e-05
-5.19444e-06
3.86455e-05
-5.97614e-06
4.43372e-05
-6.0086e-06
4.72127e-05
-6.19895e-06
4.75681e-05
-6.86397e-06
4.62358e-05
-8.00751e-06
4.37929e-05
-9.46204e-06
4.05193e-05
-1.10603e-05
3.64576e-05
-1.26366e-05
3.16322e-05
-1.40368e-05
2.60845e-05
1.98621e-05
-1.51259e-05
-9.81768e-08
3.00691e-05
1.44212e-07
3.8396e-05
1.78523e-06
4.26874e-05
3.68419e-06
4.53069e-05
4.9852e-06
4.62618e-05
5.43672e-06
4.57795e-05
5.13307e-06
4.40932e-05
4.31389e-06
4.13356e-05
3.22031e-06
3.75493e-05
2.06814e-06
3.27826e-05
1.03728e-06
2.71139e-05
2.06311e-05
2.66988e-07
1.64717e-06
2.8411e-05
4.54016e-06
3.54926e-05
8.84285e-06
3.83808e-05
1.27311e-05
4.1411e-05
1.55662e-05
4.34203e-05
1.71791e-05
4.41612e-05
1.77366e-05
4.35315e-05
1.75536e-05
4.15153e-05
1.69507e-05
3.81495e-05
1.62062e-05
3.35247e-05
1.55342e-05
2.7784e-05
2.10748e-05
1.50888e-05
2.3278e-06
2.60702e-05
7.64913e-06
3.01679e-05
1.49117e-05
3.1105e-05
2.09736e-05
3.53442e-05
2.54141e-05
3.89738e-05
2.8201e-05
4.13698e-05
2.96114e-05
4.2117e-05
3.00492e-05
4.10747e-05
2.99158e-05
3.82802e-05
2.9562e-05
3.38768e-05
2.92448e-05
2.80994e-05
2.11812e-05
2.91369e-05
1.32548e-06
2.47396e-05
1.23597e-05
1.91232e-05
2.20321e-05
2.1436e-05
2.96136e-05
2.77564e-05
3.51142e-05
3.34686e-05
3.86929e-05
3.77869e-05
4.07452e-05
4.00612e-05
4.1692e-05
4.01251e-05
4.19586e-05
3.80109e-05
4.19551e-05
3.38778e-05
4.19752e-05
2.80768e-05
2.09382e-05
4.22159e-05
2.46119e-05
1.25306e-07
3.3777e-05
9.96287e-06
3.95543e-05
1.56506e-05
4.40252e-05
2.32851e-05
4.74085e-05
3.0085e-05
4.99689e-05
3.52254e-05
5.17173e-05
3.83128e-05
5.26941e-05
3.91469e-05
5.31159e-05
3.75885e-05
5.33446e-05
3.36477e-05
5.36458e-05
2.77743e-05
5.42185e-05
2.03632e-05
-0.000121235
4.6497e-06
-0.000123227
1.98915e-06
-0.000122633
-5.94337e-07
-0.00011946
-3.17378e-06
-0.00011364
-5.81929e-06
-0.000104969
-8.67058e-06
-9.33435e-05
-1.1625e-05
-7.86079e-05
-1.47349e-05
-6.06874e-05
-1.79198e-05
-3.97133e-05
-2.09731e-05
-1.72032e-05
-2.25077e-05
-1.72026e-05
-0.000101132
6.98324e-06
-0.000102201
3.05725e-06
-0.000101867
-9.28695e-07
-9.99555e-05
-5.08595e-06
-9.62262e-05
-9.54856e-06
-9.05764e-05
-1.43195e-05
-8.28143e-05
-1.93868e-05
-7.27715e-05
-2.47769e-05
-6.01566e-05
-3.05342e-05
-4.45109e-05
-3.66176e-05
-2.55913e-05
-4.14263e-05
-4.27933e-05
-8.24062e-05
8.81562e-06
-8.32808e-05
3.9305e-06
-8.29913e-05
-1.21842e-06
-8.13621e-05
-6.71574e-06
-7.82883e-05
-1.26218e-05
-7.36545e-05
-1.89531e-05
-6.73198e-05
-2.57208e-05
-5.91414e-05
-3.29552e-05
-4.89871e-05
-4.06875e-05
-3.66832e-05
-4.89209e-05
-2.08985e-05
-5.72092e-05
-6.36904e-05
-6.49293e-05
1.02266e-05
-6.54946e-05
4.49453e-06
-6.50838e-05
-1.62976e-06
-6.36332e-05
-8.16717e-06
-6.10639e-05
-1.5191e-05
-5.73174e-05
-2.27e-05
-5.23447e-05
-3.06934e-05
-4.6094e-05
-3.92059e-05
-3.84562e-05
-4.8324e-05
-2.91893e-05
-5.81863e-05
-1.72952e-05
-6.90994e-05
-8.09857e-05
-4.81448e-05
1.13779e-05
-4.85913e-05
4.94045e-06
-4.82597e-05
-1.96341e-06
-4.71011e-05
-9.3253e-06
-4.50752e-05
-1.7219e-05
-4.21526e-05
-2.56208e-05
-3.83375e-05
-3.45107e-05
-3.36437e-05
-4.38963e-05
-2.80418e-05
-5.39271e-05
-2.12436e-05
-6.49777e-05
-1.27017e-05
-7.76439e-05
-9.36851e-05
-3.18593e-05
1.22939e-05
-3.22201e-05
5.29862e-06
-3.19854e-05
-2.19695e-06
-3.1092e-05
-1.02214e-05
-2.95281e-05
-1.878e-05
-2.73111e-05
-2.78402e-05
-2.4495e-05
-3.73226e-05
-2.12057e-05
-4.71877e-05
-1.75474e-05
-5.75788e-05
-1.36254e-05
-6.8906e-05
-8.55014e-06
-8.27124e-05
-0.000102236
-1.58372e-05
1.30035e-05
-1.61012e-05
5.5627e-06
-1.58732e-05
-2.42573e-06
-1.5136e-05
-1.09566e-05
-1.38987e-05
-2.0017e-05
-1.22061e-05
-2.95294e-05
-1.01968e-05
-3.9331e-05
-8.11006e-06
-4.927e-05
-6.2185e-06
-5.94723e-05
-4.67269e-06
-7.04448e-05
-3.10978e-06
-8.42758e-05
-0.000105344
-1.7755e-07
1.34473e-05
-2.38121e-07
5.62286e-06
1.10931e-07
-2.77391e-06
8.64519e-07
-1.17089e-05
1.99754e-06
-2.1147e-05
3.41989e-06
-3.09487e-05
4.89032e-06
-4.0797e-05
5.98393e-06
-5.03603e-05
6.22124e-06
-5.97024e-05
5.12812e-06
-6.93483e-05
2.60095e-06
-8.17446e-05
-0.000102732
1.49614e-05
1.35735e-05
1.52115e-05
5.37235e-06
1.58479e-05
-3.40955e-06
1.68563e-05
-1.27155e-05
1.82001e-05
-2.24877e-05
1.97401e-05
-3.24842e-05
2.10847e-05
-4.21361e-05
2.15757e-05
-5.08436e-05
2.04823e-05
-5.86033e-05
1.6934e-05
-6.5794e-05
1.04459e-05
-7.52344e-05
-9.22848e-05
2.93792e-05
1.33299e-05
3.00393e-05
4.71195e-06
3.11473e-05
-4.51738e-06
3.26994e-05
-1.42655e-05
3.46544e-05
-2.44399e-05
3.68013e-05
-3.46261e-05
3.85293e-05
-4.38584e-05
3.89001e-05
-5.12089e-05
3.69642e-05
-5.66607e-05
3.1416e-05
-6.02325e-05
2.06148e-05
-6.44353e-05
-7.16533e-05
4.28728e-05
1.26707e-05
4.40599e-05
3.52268e-06
4.58739e-05
-6.33156e-06
4.83319e-05
-1.6723e-05
5.13787e-05
-2.74844e-05
5.46642e-05
-3.79083e-05
5.72485e-05
-4.6438e-05
5.80218e-05
-5.19765e-05
5.59786e-05
-5.46127e-05
4.93006e-05
-5.35559e-05
3.39635e-05
-4.90775e-05
-3.76869e-05
5.53499e-05
1.1537e-05
5.72602e-05
1.6108e-06
6.01361e-05
-9.20886e-06
6.39831e-05
-2.05705e-05
6.86404e-05
-3.21407e-05
7.34665e-05
-4.2733e-05
7.70574e-05
-5.00267e-05
7.86162e-05
-5.35343e-05
7.72832e-05
-5.32795e-05
7.08343e-05
-4.71029e-05
5.40907e-05
-3.23375e-05
1.64076e-05
9.14146e-05
1.01062e-05
-0.000101468
8.44613e-05
1.6881e-05
7.59791e-05
2.41139e-05
6.97475e-05
2.94972e-05
6.60362e-05
3.37872e-05
6.4318e-05
3.69518e-05
6.38228e-05
3.88374e-05
6.37676e-05
3.92564e-05
6.37835e-05
3.76462e-05
6.39852e-05
3.3532e-05
6.44457e-05
2.74014e-05
1.95646e-05
6.53239e-05
0.000112311
1.1936e-05
-0.00011414
0.000107177
2.20183e-05
0.000100221
3.10744e-05
9.25563e-05
3.71664e-05
8.57386e-05
4.06097e-05
8.05626e-05
4.21322e-05
7.7239e-05
4.21651e-05
7.53166e-05
4.11809e-05
7.43035e-05
3.86611e-05
7.41259e-05
3.37099e-05
7.44957e-05
2.70315e-05
1.83699e-05
7.56887e-05
0.000119951
1.34255e-05
-0.000121441
0.000116717
2.52557e-05
0.000112175
3.56201e-05
0.000106616
4.27313e-05
0.000100658
4.65745e-05
9.5028e-05
4.77684e-05
9.03985e-05
4.67999e-05
8.70729e-05
4.45114e-05
8.51078e-05
4.06298e-05
8.42774e-05
3.45422e-05
8.45064e-05
2.68016e-05
1.64009e-05
8.64717e-05
0.000123017
-0.00012498
1.53892e-05
0.000120247
2.80301e-05
0.00011668
3.91925e-05
0.000112428
4.6989e-05
0.000107846
5.11631e-05
0.000103533
5.20865e-05
9.98274e-05
5.05109e-05
9.70443e-05
4.72985e-05
9.55343e-05
4.21427e-05
9.53079e-05
3.47696e-05
9.67064e-05
2.5402e-05
0.000100967