/*--------------------------------*- C++ -*----------------------------------*\
| =========                 |                                                 |
| \\      /  F ield         | OpenFOAM: The Open Source CFD Toolbox           |
|  \\    /   O peration     | Version:  v1912                                 |
|   \\  /    A nd           | Website:  www.openfoam.com                      |
|    \\/     M anipulation  |                                                 |
\*---------------------------------------------------------------------------*/
FoamFile
{
    version     2.0;
    format      ascii;
    class       volVectorField;
    location    "100";
    object      U;
}
// * * * * * * * * * * * * * * * * * * * * * * * * * * * * * * * * * * * * * //

dimensions      [0 1 -1 0 0 0 0];


internalField   nonuniform List<vector> 
3072
(
(-0.314377 2.29731 0)
(-0.238634 1.8718 0)
(-0.127657 1.68516 2.54099e-19)
(0.098707 1.84896 1.35406e-18)
(1.06897 1.89686 -1.87315e-18)
(2.49301 2.04252 4.65658e-19)
(3.20811 2.96676 1.55773e-19)
(3.5945 3.4259 2.11041e-18)
(4.09727 3.87643 -3.80262e-18)
(4.53427 4.10548 2.22391e-18)
(5.02215 4.21672 -4.96516e-19)
(5.41899 4.20869 1.2106e-19)
(-0.662678 2.80862 -2.69605e-19)
(-0.0282405 2.53548 -3.74127e-19)
(1.00767 2.78308 2.78111e-19)
(2.02488 3.36449 0)
(2.84467 3.72791 4.06381e-19)
(3.37963 3.91795 -7.22939e-19)
(3.57417 4.05352 0)
(3.70845 4.1963 0)
(3.91675 4.32777 0)
(4.1423 4.40752 7.94314e-19)
(4.36888 4.46008 -1.49748e-19)
(4.59076 4.44876 7.5833e-19)
(0.0119312 3.14952 1.81004e-19)
(0.958613 3.20872 0)
(1.92069 3.55288 0)
(2.73915 3.79995 -1.61409e-18)
(3.33007 3.87871 7.86929e-19)
(3.67989 3.85291 -1.5139e-18)
(3.83993 3.88482 1.57955e-18)
(4.00863 3.88014 0)
(4.1737 3.88136 0)
(4.3316 3.86617 -5.16494e-19)
(4.4846 3.83799 -2.63097e-19)
(4.63111 3.79061 1.31703e-18)
(0.399318 3.35111 -1.40482e-18)
(1.42352 3.50879 -1.39693e-18)
(2.30329 3.72159 8.76549e-19)
(2.96703 3.78839 -1.02989e-18)
(3.38706 3.75873 2.9997e-18)
(3.6423 3.70817 -2.63787e-18)
(3.78391 3.64869 -1.66494e-18)
(3.91168 3.61799 -3.84954e-18)
(4.02721 3.59023 3.35142e-20)
(4.13569 3.56355 1.83602e-18)
(4.23886 3.53546 1.92414e-18)
(4.33605 3.50132 -1.50565e-18)
(0.922 3.44471 0)
(1.78365 3.64902 5.8122e-19)
(2.52053 3.70893 -1.25568e-18)
(3.04071 3.67065 2.12351e-18)
(3.35698 3.58055 2.75362e-19)
(3.54354 3.48947 1.59509e-18)
(3.66553 3.41187 1.3793e-18)
(3.7744 3.35108 1.17798e-18)
(3.86937 3.2989 -2.33444e-18)
(3.95439 3.2557 2.11445e-18)
(4.03016 3.21887 -2.71442e-18)
(4.09621 3.1855 3.75965e-18)
(1.22192 3.53382 -1.17628e-18)
(1.96209 3.74473 7.25028e-19)
(2.55525 3.6739 2.48528e-18)
(2.9951 3.55844 0)
(3.25396 3.41549 -4.26381e-18)
(3.41267 3.28705 4.19892e-18)
(3.52426 3.18129 0)
(3.61746 3.09552 -2.94171e-18)
(3.69467 3.02609 2.62895e-18)
(3.75847 2.97239 0)
(3.80946 2.93183 1.94524e-19)
(3.84792 2.90254 2.27764e-18)
(1.3548 3.65166 0)
(1.9991 3.83281 -1.90512e-18)
(2.5048 3.66786 1.53623e-18)
(2.8725 3.47909 0)
(3.10099 3.27878 -2.58042e-18)
(3.2498 3.10746 4.27076e-19)
(3.35687 2.96872 3.70416e-18)
(3.44062 2.85846 3.22369e-18)
(3.50456 2.77268 -2.90645e-18)
(3.55083 2.70902 2.78539e-18)
(3.5805 2.6645 -2.43055e-18)
(3.59429 2.63743 -6.66838e-18)
(1.33945 3.79039 0)
(1.93513 3.95232 1.90131e-18)
(2.37174 3.68584 -2.98167e-18)
(2.68861 3.42778 3.42408e-18)
(2.90819 3.17037 0)
(3.06131 2.95273 -4.42331e-18)
(3.17161 2.77847 4.03393e-18)
(3.25215 2.64289 -3.90882e-20)
(3.30724 2.54045 -6.37879e-18)
(3.33938 2.46691 -2.87118e-18)
(3.35066 2.41856 -1.21328e-19)
(3.34345 2.39293 5.10059e-18)
(1.24352 3.97272 0)
(1.78735 4.1053 -2.69252e-18)
(2.15528 3.75147 -4.59082e-18)
(2.45872 3.4148 -3.40994e-18)
(2.68689 3.09716 6.31221e-18)
(2.85511 2.8297 0)
(2.97644 2.61674 0)
(3.05996 2.45377 0)
(3.11036 2.33365 0)
(3.13144 2.25 3.09048e-18)
(3.12701 2.19753 -2.97991e-18)
(3.10092 2.1726 2.81802e-18)
(1.06434 4.19561 0)
(1.60547 4.33596 3.01994e-18)
(1.89446 3.87458 -5.45383e-19)
(2.19422 3.44461 4.267e-18)
(2.4431 3.06263 3.81331e-18)
(2.63641 2.74228 -5.80389e-18)
(2.77721 2.48888 0)
(2.87009 2.29707 -1.79723e-19)
(2.92057 2.15829 -1.20476e-17)
(2.93409 2.06403 0)
(2.9166 2.00672 6.96568e-18)
(2.87404 1.98137 -3.1111e-18)
(1.10063 4.50213 0)
(1.29282 4.49402 3.65369e-18)
(1.53702 3.96126 9.85993e-18)
(1.87958 3.45634 -8.25966e-18)
(2.17121 3.03278 -1.05124e-17)
(2.40519 2.67644 1.54344e-17)
(2.57604 2.39133 -1.82179e-19)
(2.68668 2.17396 -5.32311e-18)
(2.74322 2.01776 4.05957e-18)
(2.75318 1.91333 -8.31156e-18)
(2.72546 1.85098 -1.10411e-17)
(2.66853 1.82446 1.10081e-17)
(0.394115 3.85812 -1.7572e-18)
(0.803332 3.91657 -1.20461e-17)
(1.11658 3.52239 2.37618e-18)
(1.50701 3.15687 0)
(1.87081 2.85249 0)
(2.16224 2.55393 3.03661e-19)
(2.37328 2.28741 1.80193e-17)
(2.5097 2.06927 1.06733e-17)
(2.57986 1.90654 0)
(2.59143 1.79666 8.88927e-18)
(2.55689 1.73097 0)
(2.48783 1.70381 5.16452e-19)
(5.77277 4.10462 4.11807e-18)
(6.02847 3.92265 -2.04821e-18)
(6.19371 3.67712 1.10782e-18)
(6.25117 3.39055 -1.51054e-19)
(6.21002 3.06102 6.99759e-20)
(6.04513 2.71894 0)
(5.7534 2.36922 0)
(5.33003 2.03722 9.21184e-19)
(4.77108 1.72799 -1.09083e-18)
(4.02623 1.41834 0)
(3.23259 1.03622 0)
(2.82281 0.233299 2.73098e-20)
(4.8061 4.38681 -2.69395e-19)
(4.99823 4.27355 0)
(5.16362 4.11003 -8.87662e-19)
(5.28424 3.90251 -3.65009e-19)
(5.33145 3.67692 -7.32148e-20)
(5.29794 3.44423 1.59324e-18)
(5.17512 3.21712 -2.81375e-18)
(4.96138 3.01505 5.30707e-19)
(4.65766 2.85834 0)
(4.15499 2.74136 0)
(3.60647 2.63578 0)
(3.45212 2.35246 7.50464e-19)
(4.76654 3.72314 5.3077e-19)
(4.87824 3.63876 -1.46446e-18)
(4.95548 3.54276 3.49775e-19)
(4.98853 3.44326 1.18962e-18)
(4.97001 3.34589 -1.23971e-18)
(4.89611 3.26018 0)
(4.76346 3.19532 0)
(4.57354 3.16391 -5.17438e-20)
(4.33284 3.17916 8.65572e-19)
(3.96999 3.24337 0)
(3.55337 3.30975 0)
(3.51659 3.27342 -4.29637e-19)
(4.4216 3.4592 2.42009e-19)
(4.48759 3.4105 1.88509e-18)
(4.52703 3.35889 1.4163e-18)
(4.53426 3.3115 -1.43441e-18)
(4.50595 3.27659 0)
(4.44089 3.26135 9.65748e-19)
(4.33962 3.27356 0)
(4.20501 3.323 1.91444e-18)
(4.04541 3.42135 -7.00558e-19)
(3.8427 3.57749 0)
(3.50937 3.79755 -3.25017e-19)
(3.68416 4.07707 3.75811e-19)
(4.14868 3.15488 -1.40351e-18)
(4.18092 3.13011 0)
(4.19121 3.11386 0)
(4.17911 3.1076 0)
(4.14331 3.12217 0)
(4.08536 3.16096 -1.79943e-18)
(4.00851 3.22885 -6.22089e-20)
(3.91737 3.33268 -9.85556e-19)
(3.81931 3.48379 0)
(3.72246 3.69748 -7.40563e-19)
(3.48526 3.993 2.9392e-19)
(3.79937 4.42641 -1.06468e-19)
(3.86974 2.88575 -1.48028e-19)
(3.87598 2.87969 -3.57876e-18)
(3.86683 2.88823 1.81911e-18)
(3.84237 2.91606 3.40857e-21)
(3.80378 2.96646 1.363e-19)
(3.75503 3.04273 2.82905e-18)
(3.70169 3.14693 -4.53131e-20)
(3.65208 3.28285 -3.37595e-18)
(3.61561 3.46056 -1.40275e-18)
(3.60224 3.69978 6.49232e-19)
(3.49845 4.04457 -9.27788e-19)
(3.9319 4.63115 -2.26026e-19)
(3.59286 2.62801 6.35785e-18)
(3.57824 2.63688 2.05658e-18)
(3.55216 2.665 0)
(3.51668 2.71513 0)
(3.47499 2.7902 1.39318e-19)
(3.4326 2.89112 -2.09482e-18)
(3.39788 3.01641 3.44542e-18)
(3.38368 3.16572 -6.55041e-20)
(3.4021 3.34561 1.23526e-18)
(3.47171 3.575 0)
(3.51173 3.9191 -1.78822e-19)
(3.98773 4.56772 -8.85819e-20)
(3.32091 2.38922 -2.45877e-18)
(3.28634 2.40731 -2.21906e-18)
(3.24295 2.44783 2.41747e-18)
(3.19434 2.51277 -2.28543e-18)
(3.14516 2.60381 -1.25423e-20)
(3.10237 2.71943 4.79857e-18)
(3.07807 2.85378 -2.2875e-18)
(3.09174 3.00137 1.35964e-18)
(3.16037 3.165 0)
(3.31304 3.3623 8.81253e-19)
(3.47964 3.66705 3.84294e-19)
(4.03882 4.27881 -6.24317e-19)
(3.05935 2.17266 2.63379e-18)
(3.00411 2.19642 -2.65182e-18)
(2.94104 2.24442 -2.46178e-18)
(2.87455 2.3177 -5.24382e-18)
(2.80981 2.41714 5.18932e-18)
(2.7552 2.53853 -5.13057e-18)
(2.72767 2.67019 0)
(2.7566 2.80032 -1.33833e-18)
(2.86342 2.92688 0)
(3.09102 3.06192 0)
(3.38862 3.28525 0)
(3.98904 3.8238 3.08226e-19)
(2.81308 1.98403 3.04343e-18)
(2.73635 2.01179 -6.13317e-18)
(2.65024 2.06392 6.01979e-18)
(2.55876 2.14091 5.87099e-18)
(2.46681 2.24314 2.91191e-18)
(2.3846 2.36317 0)
(2.3365 2.48134 0)
(2.36578 2.57996 3.28922e-18)
(2.49426 2.65082 0)
(2.78556 2.69538 -1.0381e-18)
(3.18989 2.77739 5.96885e-19)
(3.85873 3.04493 -9.75181e-19)
(2.58805 1.82912 -7.09042e-18)
(2.48844 1.85966 6.40311e-18)
(2.37343 1.91401 -6.29089e-18)
(2.24618 1.99164 -1.62449e-17)
(2.11114 2.0927 -1.89033e-19)
(1.98218 2.20576 1.2755e-19)
(1.89667 2.30138 -3.53803e-18)
(1.91394 2.35843 -3.30885e-18)
(2.04245 2.35815 0)
(2.37033 2.2873 3.14744e-18)
(2.84897 2.14837 8.87879e-19)
(3.5746 1.87883 -1.41722e-18)
(2.38841 1.71068 -5.15176e-19)
(2.26118 1.74323 0)
(2.10621 1.79795 0)
(1.9262 1.87346 3.44388e-18)
(1.72707 1.97043 1.06723e-17)
(1.5335 2.07286 -3.48544e-18)
(1.40514 2.14118 -1.68296e-19)
(1.40706 2.14936 -1.70093e-18)
(1.51655 2.0819 -1.63505e-18)
(1.82545 1.88567 -1.93571e-18)
(2.34584 1.4738 0)
(2.91981 0.171792 1.8725e-18)
(2.2904 0.303245 3.79236e-22)
(1.86956 0.230344 0)
(1.68447 0.120979 -2.54874e-19)
(1.85054 -0.107019 0)
(1.89505 -1.08005 -8.10144e-19)
(2.0516 -2.50028 4.59469e-19)
(2.97079 -3.20325 0)
(3.42817 -3.59141 1.79109e-18)
(3.87567 -4.09115 -3.33462e-18)
(4.10322 -4.52798 2.57784e-18)
(4.21277 -5.01386 -1.69957e-19)
(4.20394 -5.41016 -1.2194e-19)
(2.80743 0.654128 -1.82977e-19)
(2.53501 0.0227638 -8.15603e-20)
(2.78429 -1.01104 1.8062e-19)
(3.36562 -2.02641 0)
(3.72603 -2.84356 -4.10612e-19)
(3.91618 -3.37301 3.63057e-19)
(4.05121 -3.56538 0)
(4.19395 -3.70052 7.40419e-19)
(4.32448 -3.90812 -1.65536e-18)
(4.40358 -4.13408 9.00654e-19)
(4.45506 -4.36031 -2.6933e-19)
(4.4431 -4.58228 -1.59101e-18)
(3.1462 -0.0170622 -1.81431e-19)
(3.20689 -0.964199 0)
(3.55121 -1.92461 -8.29827e-19)
(3.798 -2.73988 0)
(3.87539 -3.32708 0)
(3.85044 -3.67323 -7.00847e-19)
(3.88249 -3.83164 3.19612e-18)
(3.87789 -3.99998 -2.30593e-18)
(3.87891 -4.16458 6.14306e-19)
(3.86352 -4.32258 0)
(3.83495 -4.47564 1.18474e-18)
(3.78718 -4.62249 -6.78345e-19)
(3.34953 -0.404442 8.03239e-19)
(3.50769 -1.4281 7.22851e-19)
(3.71999 -2.30566 6.91642e-19)
(3.78644 -2.96583 1.63764e-18)
(3.75651 -3.38275 -1.45911e-18)
(3.70639 -3.63554 -1.00224e-18)
(3.64755 -3.77606 0)
(3.61723 -3.90362 0)
(3.58948 -4.01912 1.20862e-18)
(3.5626 -4.12788 0)
(3.53409 -4.23139 3.24882e-19)
(3.49933 -4.32907 5.57388e-19)
(3.44383 -0.925833 6.73463e-19)
(3.64837 -1.78722 -4.7343e-19)
(3.70784 -2.52193 -1.25103e-18)
(3.66959 -3.03877 0)
(3.57983 -3.35241 0)
(3.48942 -3.53737 2.02332e-18)
(3.41245 -3.65881 0)
(3.35204 -3.76754 -2.67155e-18)
(3.30003 -3.86259 -9.94232e-19)
(3.25668 -3.94791 2.10652e-18)
(3.21944 -4.0241 -2.70766e-18)
(3.18539 -4.09065 1.78921e-18)
(3.53314 -1.22509 -6.08222e-19)
(3.74436 -1.96515 -6.78081e-19)
(3.67338 -2.55611 1.11479e-18)
(3.55829 -2.99312 1.6503e-19)
(3.41606 -3.24989 2.16783e-18)
(3.28849 -3.40753 -4.01314e-18)
(3.18347 -3.51875 3.39545e-18)
(3.09823 -3.61189 2.38738e-19)
(3.02909 -3.68926 0)
(2.97536 -3.7534 0)
(2.93445 -3.80489 4.46838e-18)
(2.90449 -3.84398 -4.1099e-20)
(3.6513 -1.35753 -7.8315e-20)
(3.83243 -2.00184 -1.07281e-18)
(3.6675 -2.50564 0)
(3.47946 -2.87092 -2.50971e-18)
(3.2802 -3.09775 2.73202e-18)
(3.10998 -3.24581 6.64235e-18)
(2.97218 -3.35264 3.94036e-18)
(2.86266 -3.4364 4.35687e-19)
(2.77735 -3.50057 -5.90804e-18)
(2.71381 -3.54726 2.63646e-18)
(2.66906 -3.57758 2.70935e-18)
(2.64135 -3.59225 1.14192e-19)
(3.7898 -1.34206 9.55259e-20)
(3.95171 -1.9377 1.89286e-18)
(3.68542 -2.37271 0)
(3.42827 -2.68767 -3.41438e-18)
(3.17213 -2.90601 -2.6032e-18)
(2.95584 -3.05855 2.93144e-19)
(2.78277 -3.16867 -7.81674e-18)
(2.64815 -3.24928 1.79751e-19)
(2.54637 -3.30464 -2.0238e-19)
(2.47313 -3.33728 3.05104e-18)
(2.42468 -3.34931 -2.38469e-18)
(2.39849 -3.34306 1.70398e-19)
(3.97237 -1.24543 -2.94223e-18)
(4.10444 -1.78964 1.0972e-18)
(3.75061 -2.1565 -6.66843e-18)
(3.4149 -2.45854 3.39546e-18)
(3.09871 -2.68579 0)
(2.83282 -2.85354 0)
(2.6213 -2.97472 4.60175e-18)
(2.45953 -3.0583 7.93493e-18)
(2.3403 -3.10899 -3.54647e-18)
(2.25713 -3.13059 -3.07962e-18)
(2.20471 -3.12697 -2.8678e-18)
(2.1793 -3.10182 0)
(4.19413 -1.06554 6.16645e-21)
(4.33415 -1.60724 4.53152e-18)
(3.87293 -1.89587 9.83435e-18)
(3.44403 -2.19485 0)
(3.06353 -2.44307 6.78365e-18)
(2.74489 -2.63598 0)
(2.49314 -2.7766 1.62159e-19)
(2.30277 -2.86948 -4.21205e-18)
(2.16509 -2.92021 4.13572e-18)
(2.07152 -2.93423 0)
(2.01442 -2.91752 0)
(1.98875 -2.87589 -6.50624e-18)
(4.50193 -1.0992 -6.33193e-18)
(4.4936 -1.29419 3.65139e-18)
(3.9604 -1.53911 4.76463e-19)
(3.45583 -1.88117 -8.92103e-18)
(3.03334 -2.17233 -3.33577e-18)
(2.67847 -2.40593 -3.09589e-18)
(2.39496 -2.57648 -5.55784e-18)
(2.17912 -2.68699 -1.46879e-17)
(2.0242 -2.74363 -4.04678e-18)
(1.92063 -2.754 -8.28815e-18)
(1.85866 -2.72697 7.78215e-18)
(1.83199 -2.67093 6.88629e-18)
(3.86055 -0.394606 3.3368e-18)
(3.91945 -0.805013 -1.42638e-18)
(3.5246 -1.11866 3.02536e-19)
(3.15861 -1.50931 7.85968e-18)
(2.8543 -1.87294 0)
(2.5563 -2.16401 -6.7136e-18)
(2.2907 -2.37464 5.81932e-18)
(2.07381 -2.51079 4.90528e-18)
(1.9123 -2.58087 -1.51265e-17)
(1.80335 -2.59266 8.86867e-18)
(1.73817 -2.55866 -8.29659e-18)
(1.71103 -2.49034 0)
(4.09891 -5.76278 -2.09045e-18)
(3.91675 -6.01831 5.29183e-18)
(3.6709 -6.18311 -2.05255e-18)
(3.38448 -6.24106 -2.19888e-18)
(3.05545 -6.20014 1.80199e-18)
(2.71388 -6.03626 -1.77321e-19)
(2.36502 -5.74542 4.13028e-20)
(2.03367 -5.32336 4.68779e-20)
(1.72523 -4.76572 -1.09017e-18)
(1.41608 -4.02228 0)
(1.03431 -3.23057 0)
(0.231034 -2.82148 2.70692e-20)
(4.38053 -4.79746 3.8124e-20)
(4.26695 -4.98966 4.37586e-19)
(4.10324 -5.15517 -8.87698e-19)
(3.8957 -5.2761 0)
(3.67018 -5.3238 5.16598e-19)
(3.43776 -5.29096 0)
(3.21105 -5.16891 7.86087e-19)
(3.00945 -4.9561 1.99511e-18)
(2.85328 -4.65339 -1.67108e-18)
(2.73679 -4.1517 0)
(2.63145 -3.60475 0)
(2.34791 -3.45139 4.50846e-20)
(3.71916 -4.75826 2.10114e-19)
(3.63419 -4.87043 -2.06207e-19)
(3.53762 -4.94825 3.52044e-19)
(3.43758 -4.98197 0)
(3.3398 -4.96415 -5.70955e-19)
(3.25387 -4.89096 1.88919e-18)
(3.18897 -4.75904 -2.69179e-18)
(3.15765 -4.5699 -3.69462e-18)
(3.1731 -4.32999 2.49627e-18)
(3.23765 -3.96791 0)
(3.30401 -3.55227 4.96783e-19)
(3.26798 -3.51618 1.56356e-19)
(3.45642 -4.41519 5.2074e-19)
(3.40696 -4.48178 -1.31092e-18)
(3.3546 -4.52186 1.41842e-18)
(3.30643 -4.52977 -1.43736e-18)
(3.27079 -4.50213 0)
(3.25501 -4.43769 9.67387e-19)
(3.26694 -4.33704 8.99921e-19)
(3.31628 -4.20303 6.44211e-19)
(3.41463 -4.04398 -1.36937e-18)
(3.57098 -3.84173 0)
(3.79121 -3.50885 -2.7987e-19)
(4.07051 -3.68417 3.89059e-19)
(3.15395 -4.14367 1.61221e-18)
(3.12803 -4.1768 -8.13555e-19)
(3.11076 -4.18783 0)
(3.1036 -4.17654 0)
(3.11718 -4.14142 9.22417e-19)
(3.15513 -4.08409 -8.293e-19)
(3.22248 -4.00776 -1.34492e-19)
(3.32596 -3.91703 0)
(3.47698 -3.81924 -6.24988e-19)
(3.69069 -3.72258 7.42562e-19)
(3.9866 -3.48529 -6.10043e-19)
(4.41993 -3.79984 -1.32497e-19)
(2.88668 -3.8668 -3.41402e-18)
(2.87964 -3.87386 1.72956e-18)
(2.88681 -3.86558 3.7779e-18)
(2.91334 -3.8419 3.39127e-21)
(2.96248 -3.80397 -4.69586e-18)
(3.03765 -3.75574 -2.05546e-18)
(3.14104 -3.70276 -1.37147e-19)
(3.27647 -3.65331 0)
(3.454 -3.61683 0)
(3.69329 -3.60326 -6.50438e-19)
(4.03831 -3.49899 -5.37023e-19)
(4.62503 -3.93267 9.48686e-20)
(2.63093 -3.59182 2.14377e-18)
(2.63854 -3.57815 -4.32802e-18)
(2.66523 -3.55298 -1.91069e-18)
(2.71386 -3.51824 -1.20135e-19)
(2.78743 -3.47714 1.93705e-18)
(2.88703 -3.43515 2.00098e-18)
(3.01128 -3.40062 1.18752e-18)
(3.15997 -3.38637 1.18628e-18)
(3.33961 -3.40454 -1.32264e-18)
(3.56912 -3.47371 0)
(3.91345 -3.51314 7.46532e-19)
(4.56236 -3.9887 -2.82087e-19)
(2.39379 -3.32157 0)
(2.41059 -3.28801 2.21646e-18)
(2.4496 -3.24553 0)
(2.51291 -3.19766 -1.24264e-19)
(2.60231 -3.14898 -1.23551e-20)
(2.7164 -3.10648 4.80161e-18)
(2.84957 -3.08221 -1.05909e-18)
(2.9964 -3.09565 -2.62672e-18)
(3.15977 -3.1638 -1.51894e-18)
(3.35716 -3.31575 8.82492e-19)
(3.66231 -3.48145 -1.46026e-18)
(4.2751 -4.0401 7.48946e-19)
(2.17852 -3.06134 2.62608e-18)
(2.20099 -3.00718 -2.64611e-18)
(2.24748 -2.94499 -2.69174e-18)
(2.3191 -2.87919 2.67565e-18)
(2.4168 -2.81488 2.60403e-18)
(2.53655 -2.76046 -7.88724e-18)
(2.66689 -2.73287 0)
(2.79622 -2.76141 1.34008e-18)
(2.92248 -2.86756 1.4357e-18)
(3.05773 -3.09428 0)
(3.28151 -3.39089 1.96516e-18)
(3.82114 -3.99024 -1.54696e-18)
(1.99065 -2.81603 0)
(2.01723 -2.74031 -6.12487e-18)
(2.06791 -2.65506 -3.23599e-18)
(2.14326 -2.56419 -5.65299e-18)
(2.24375 -2.47259 2.91228e-18)
(2.36207 -2.39054 2.85417e-18)
(2.47889 -2.34232 0)
(2.5767 -2.37111 0)
(2.64728 -2.49885 0)
(2.69208 -2.78914 0)
(2.77474 -3.19243 -5.7266e-19)
(3.04427 -3.86025 -7.00482e-20)
(1.83603 -2.59145 3.38748e-18)
(1.86551 -2.49278 3.0453e-18)
(1.9185 -2.37852 1.3041e-17)
(1.99458 -2.2518 3.47368e-18)
(2.09397 -2.11703 1.33754e-17)
(2.20531 -1.98827 -3.33183e-18)
(2.29959 -1.90265 -3.54052e-18)
(2.35591 -1.91943 0)
(2.35537 -2.0471 -3.61355e-18)
(2.28483 -2.37398 -2.05697e-18)
(2.14683 -2.85179 -1.61371e-18)
(1.87988 -3.57591 -9.26733e-26)
(1.71741 -2.39179 0)
(1.74905 -2.26534 0)
(1.80253 -2.11099 -1.4799e-17)
(1.87662 -1.9314 -1.07817e-17)
(1.97197 -1.73254 -3.40102e-18)
(2.07275 -1.53926 0)
(2.13978 -1.41077 3.51278e-18)
(2.14734 -1.41216 0)
(2.07973 -1.52099 -1.01934e-19)
(1.8839 -1.82901 1.93782e-18)
(1.47324 -2.3488 5.3934e-19)
(0.174195 -2.92161 3.72115e-18)
(0.304245 -2.29015 5.97491e-20)
(0.231336 -1.86908 3.83599e-19)
(0.121951 -1.6838 -5.5156e-19)
(-0.106288 -1.85 1.73752e-19)
(-1.08072 -1.89475 0)
(-2.50267 -2.05263 2.70973e-19)
(-3.20673 -2.97323 0)
(-3.59569 -3.43173 6.01915e-20)
(-4.09629 -3.88026 2.66711e-18)
(-4.53388 -4.10847 -1.39832e-18)
(-5.02042 -4.21855 -3.35592e-18)
(-5.41724 -4.20997 2.05622e-18)
(0.655109 -2.80729 4.69564e-19)
(0.0235724 -2.53464 -3.80136e-19)
(-1.01121 -2.78406 2.30086e-19)
(-2.02818 -3.36622 -6.1844e-20)
(-2.84696 -3.72734 -4.11078e-19)
(-3.37763 -3.91816 -9.89136e-20)
(-3.57041 -4.05369 -7.9923e-19)
(-3.70571 -4.19712 -1.27869e-18)
(-3.91352 -4.32826 2.2637e-18)
(-4.13965 -4.40795 -3.94374e-19)
(-4.36605 -4.45986 8.58286e-19)
(-4.58816 -4.44821 6.58264e-19)
(-0.016101 -3.14665 -3.63198e-19)
(-0.964532 -3.20698 0)
(-1.92652 -3.55181 0)
(-2.74348 -3.79912 -6.42579e-19)
(-3.33198 -3.87682 0)
(-3.67865 -3.85211 -8.10694e-19)
(-3.83718 -3.88461 6.96722e-19)
(-4.00569 -3.88032 1.54749e-18)
(-4.17036 -3.88173 -1.01067e-18)
(-4.32838 -3.86674 -9.65756e-19)
(-4.4814 -3.83855 -1.44223e-18)
(-4.62818 -3.79113 1.31119e-18)
(-0.403874 -3.35002 -1.6097e-18)
(-1.42905 -3.50804 -7.23417e-19)
(-2.30825 -3.72065 1.08578e-18)
(-2.96995 -3.78725 6.09194e-19)
(-3.38783 -3.75734 0)
(-3.64101 -3.70732 -2.90458e-18)
(-3.78166 -3.64857 2.83851e-18)
(-3.90927 -3.61857 0)
(-4.02469 -3.59117 1.68176e-18)
(-4.13331 -3.56472 -2.53924e-18)
(-4.23663 -3.53669 1.59135e-18)
(-4.3341 -3.5024 2.35992e-19)
(-0.925799 -3.44438 1.00442e-18)
(-1.78852 -3.64863 1.3381e-18)
(-2.52476 -3.70814 2.92208e-19)
(-3.04294 -3.66971 0)
(-3.35735 -3.57978 -1.97416e-18)
(-3.5426 -3.48931 3.37888e-18)
(-3.66411 -3.41241 0)
(-3.77279 -3.3522 -1.48522e-18)
(-3.86771 -3.3005 -1.29956e-18)
(-3.95281 -3.25758 2.10402e-18)
(-4.02874 -3.22085 0)
(-4.09498 -3.18737 -1.5328e-18)
(-1.22466 -3.53382 5.63826e-19)
(-1.9663 -3.74411 2.6578e-19)
(-2.55876 -3.67296 -1.1152e-18)
(-2.99701 -3.55763 -4.99806e-18)
(-3.25443 -3.41508 -7.9458e-20)
(-3.41229 -3.28733 4.17577e-18)
(-3.52354 -3.18228 0)
(-3.61659 -3.09715 4.51531e-18)
(-3.69376 -3.02827 -2.58156e-18)
(-3.75762 -2.97494 2.36537e-18)
(-3.80874 -2.93455 1.93524e-19)
(-3.84741 -2.90522 4.1447e-20)
(-1.36174 -3.64571 -7.20236e-19)
(-2.00382 -3.83209 -7.68044e-19)
(-2.50819 -3.6667 0)
(-2.87438 -3.47818 5.29276e-18)
(-3.10173 -3.27841 -7.79921e-18)
(-3.24998 -3.10785 -1.44323e-19)
(-3.35679 -2.96989 -7.62374e-18)
(-3.44042 -2.86038 2.11068e-19)
(-3.50432 -2.77525 -2.89173e-18)
(-3.55064 -2.71206 -2.77228e-18)
(-3.58046 -2.6678 2.70339e-18)
(-3.59449 -2.64075 -2.29222e-18)
(-1.3344 -3.79916 -2.72997e-20)
(-1.93735 -3.95096 -9.6902e-19)
(-2.37449 -3.68455 0)
(-2.69046 -3.42648 3.41324e-18)
(-2.90929 -3.16968 2.45633e-18)
(-3.06201 -2.95288 2.07103e-18)
(-3.17211 -2.77951 -2.23795e-19)
(-3.25253 -2.64479 3.88975e-20)
(-3.30757 -2.54311 -3.28396e-18)
(-3.33974 -2.47015 -2.49415e-19)
(-3.35113 -2.42216 1.79861e-19)
(-3.34415 -2.39664 0)
(-1.2548 -3.9636 1.44659e-18)
(-1.79091 -4.1035 0)
(-2.15797 -3.74904 0)
(-2.46067 -3.41276 -3.39538e-18)
(-2.68835 -3.09578 2.83232e-18)
(-2.85627 -2.82923 -5.32233e-18)
(-2.97743 -2.61728 0)
(-3.06081 -2.4553 3.86919e-18)
(-3.11111 -2.33607 -1.91283e-19)
(-3.13216 -2.25313 3.07666e-18)
(-3.12779 -2.20112 -3.12446e-18)
(-3.10189 -2.17643 5.7874e-18)
(-1.0604 -4.198 4.65287e-18)
(-1.60727 -4.33347 -1.51757e-18)
(-1.89653 -3.87193 -5.18185e-18)
(-2.1962 -3.44175 -8.18815e-18)
(-2.44488 -3.06029 0)
(-2.638 -2.74087 5.34501e-18)
(-2.77862 -2.48857 -9.85842e-18)
(-2.87129 -2.2979 4.16296e-18)
(-2.92158 -2.16014 4.13164e-18)
(-2.93499 -2.06672 0)
(-2.91746 -2.00997 -3.71972e-18)
(-2.87504 -1.98499 -6.00521e-18)
(-1.09863 -4.503 -6.39062e-18)
(-1.29353 -4.4926 1.6363e-18)
(-1.53903 -3.95889 4.68464e-18)
(-1.88168 -3.45328 3.93627e-18)
(-2.17337 -3.02984 1.61926e-20)
(-2.40726 -2.67417 -9.35997e-18)
(-2.57786 -2.39006 1.0674e-17)
(-2.68818 -2.17385 1.93328e-17)
(-2.74437 -2.01879 -1.28235e-17)
(-2.75407 -1.91531 -8.27792e-18)
(-2.72622 -1.85363 7.26864e-18)
(-2.66927 -1.82757 0)
(-0.393469 -3.86012 5.22939e-18)
(-0.803769 -3.91796 1.83014e-18)
(-1.11803 -3.52245 2.07458e-18)
(-1.50928 -3.15572 8.30827e-18)
(-1.87341 -2.85058 0)
(-2.16475 -2.55176 6.39759e-18)
(-2.37549 -2.28561 -1.21689e-17)
(-2.5115 -2.06835 -5.20712e-18)
(-2.58112 -1.9067 -4.97473e-18)
(-2.5922 -1.79778 8.85332e-18)
(-2.55737 -1.73284 4.55571e-18)
(-2.48814 -1.70622 1.2429e-17)
(-5.77017 -4.10503 7.06113e-19)
(-6.02586 -3.92274 9.19414e-20)
(-6.19063 -3.6766 1.61306e-18)
(-6.24837 -3.38972 -4.41842e-18)
(-6.20698 -3.06011 1.73791e-18)
(-6.04245 -2.71785 0)
(-5.75083 -2.36827 -3.42991e-19)
(-5.32786 -2.03623 2.19456e-19)
(-4.76931 -1.72715 0)
(-4.02499 -1.41752 3.58163e-20)
(-3.23197 -1.03547 0)
(-2.8225 -0.232826 -3.81215e-19)
(-4.80345 -4.3858 -8.95388e-19)
(-4.99569 -4.27227 1.34519e-18)
(-5.16112 -4.1085 5.97005e-19)
(-5.28177 -3.90091 -1.45684e-19)
(-5.32908 -3.67525 0)
(-5.29576 -3.44256 0)
(-5.17317 -3.21552 1.09764e-18)
(-4.95973 -3.0135 -1.22279e-18)
(-4.6563 -2.85683 0)
(-4.15406 -2.73992 6.2925e-19)
(-3.60593 -2.63444 -7.03155e-20)
(-3.45174 -2.3512 -1.16829e-18)
(-4.76381 -3.72344 6.33909e-19)
(-4.87575 -3.63876 -9.37231e-19)
(-4.95325 -3.54244 0)
(-4.98659 -3.44258 -1.15737e-18)
(-4.96834 -3.3449 -1.47519e-18)
(-4.8947 -3.25893 3.46775e-18)
(-4.76228 -3.19389 -3.3703e-18)
(-4.5726 -3.16233 0)
(-4.33208 -3.17745 0)
(-3.96946 -3.24164 0)
(-3.55307 -3.30809 -5.66082e-19)
(-3.51633 -3.27183 1.1664e-19)
(-4.41995 -3.45997 -5.18366e-19)
(-4.48619 -3.41092 -2.87469e-19)
(-4.52586 -3.35897 0)
(-4.5333 -3.31117 -2.46448e-19)
(-4.50518 -3.27584 0)
(-4.44026 -3.26023 0)
(-4.33911 -3.27219 9.41561e-19)
(-4.20462 -3.32143 -1.26757e-18)
(-4.04507 -3.41961 1.40412e-18)
(-3.84241 -3.57569 0)
(-3.50924 -3.79577 -3.25172e-19)
(-3.68399 -4.07516 -3.76061e-19)
(-4.14765 -3.15651 3.39194e-18)
(-4.18022 -3.1313 -8.04994e-19)
(-4.19076 -3.11459 1.45024e-18)
(-4.17888 -3.10792 7.47826e-19)
(-4.14322 -3.12198 -2.5927e-18)
(-4.08537 -3.16031 0)
(-4.00858 -3.22783 -1.05811e-18)
(-3.91745 -3.33135 0)
(-3.81934 -3.48222 0)
(-3.72243 -3.69573 7.40947e-19)
(-3.4853 -3.99125 6.08029e-20)
(-3.79932 -4.42449 4.21585e-19)
(-3.86955 -2.88817 -1.50633e-18)
(-3.87606 -2.88177 -1.16852e-19)
(-3.86715 -2.88976 0)
(-3.84285 -2.91704 0)
(-3.80436 -2.96687 -2.99128e-18)
(-3.75564 -3.04258 1.90684e-18)
(-3.70225 -3.1463 2.04623e-18)
(-3.65254 -3.28183 1.12167e-18)
(-3.61595 -3.45925 -2.70389e-18)
(-3.60244 -3.69824 -6.49439e-19)
(-3.49859 -4.0429 0)
(-3.93191 -4.62928 3.578e-19)
(-3.59335 -2.63113 -4.43281e-18)
(-3.57899 -2.63961 1.83541e-18)
(-3.55311 -2.66723 2.03744e-18)
(-3.51774 -2.71678 1.14077e-19)
(-3.47608 -2.79122 -2.51005e-19)
(-3.43363 -2.89152 -2.22756e-18)
(-3.39877 -3.01625 -3.3655e-18)
(-3.3844 -3.1651 -1.25954e-18)
(-3.40263 -3.34462 1.23492e-18)
(-3.47206 -3.57372 0)
(-3.51196 -3.91762 1.2914e-18)
(-3.9878 -4.56603 -3.46764e-19)
(-3.32187 -2.39279 4.68675e-18)
(-3.28752 -2.41056 -2.61489e-18)
(-3.24428 -2.4506 -2.41117e-18)
(-3.19572 -2.51497 -4.4374e-18)
(-3.14649 -2.60538 4.46874e-18)
(-3.10356 -2.72035 -1.52523e-19)
(-3.07905 -2.85408 7.24444e-18)
(-3.09251 -3.00113 1.20091e-18)
(-3.16091 -3.16433 1.51662e-18)
(-3.31339 -3.36125 0)
(-3.47985 -3.66576 -8.93348e-19)
(-4.0389 -4.2774 -4.29054e-19)
(-3.06051 -2.17643 0)
(-3.00542 -2.19995 2.49511e-18)
(-2.94243 -2.24754 2.45587e-18)
(-2.87592 -2.32029 -2.56239e-18)
(-2.81105 -2.41913 -1.1132e-19)
(-2.75621 -2.53986 -2.74967e-18)
(-2.72846 -2.67085 -2.57908e-18)
(-2.75717 -2.80041 0)
(-2.86377 -2.92648 -1.43377e-18)
(-3.09124 -3.06107 -9.59575e-19)
(-3.38873 -3.2841 3.1435e-18)
(-3.98908 -3.82242 -7.12068e-19)
(-2.81416 -1.98771 0)
(-2.73749 -2.01534 0)
(-2.65136 -2.06715 0)
(-2.55975 -2.14369 -8.85684e-18)
(-2.46758 -2.24536 5.78531e-18)
(-2.38509 -2.36475 5.80021e-18)
(-2.3368 -2.48223 0)
(-2.36594 -2.58026 -3.28947e-18)
(-2.49427 -2.65058 0)
(-2.78554 -2.69463 -2.05019e-18)
(-3.18984 -2.77633 -5.72422e-19)
(-3.85874 -3.04371 -9.75593e-19)
(-2.58877 -1.83246 0)
(-2.48909 -1.86299 0)
(-2.37392 -1.91712 6.74324e-18)
(-2.24642 -1.99439 9.50305e-18)
(-2.11107 -2.09499 3.27998e-19)
(-1.98183 -2.20742 3.45497e-18)
(-1.89626 -2.30231 -1.76535e-18)
(-1.91356 -2.35878 4.98276e-18)
(-2.04201 -2.35794 3.61091e-18)
(-2.37006 -2.28653 1.9121e-18)
(-2.84879 -2.14731 -1.6128e-18)
(-3.57461 -1.87766 -1.6315e-18)
(-2.38855 -1.71345 0)
(-2.26104 -1.74612 0)
(-2.10574 -1.80073 -7.1417e-18)
(-1.92536 -1.876 3.90643e-18)
(-1.72587 -1.97257 -3.39419e-18)
(-1.53211 -2.07439 -3.48341e-18)
(-1.40393 -2.14196 3.67558e-18)
(-1.40602 -2.1496 0)
(-1.51574 -2.08157 -3.30647e-18)
(-1.82514 -1.88473 -1.97156e-18)
(-2.3457 -1.47269 2.0405e-18)
(-2.92009 -0.170884 -3.61698e-18)
(-2.28943 -0.303119 5.70776e-20)
(-1.86924 -0.229943 0)
(-1.68245 -0.121839 0)
(-1.8473 0.102671 1.06899e-18)
(-1.89666 1.06955 -1.06673e-18)
(-2.04248 2.49255 0)
(-2.96586 3.20648 0)
(-3.42466 3.59247 6.15638e-20)
(-3.87447 4.09443 3.33993e-19)
(-4.10303 4.531 -9.43623e-19)
(-4.21379 5.01825 -3.51857e-18)
(-4.20542 5.41477 1.35037e-18)
(-2.80631 -0.655092 -6.09258e-19)
(-2.53465 -0.0279921 0)
(-2.7802 1.00456 0)
(-3.36057 2.02322 -3.62049e-19)
(-3.72495 2.84363 6.9459e-19)
(-3.91505 3.3775 -1.60102e-18)
(-4.05114 3.57138 1.164e-18)
(-4.19384 3.70512 6.97144e-19)
(-4.32519 3.91297 1.07589e-19)
(-4.4047 4.13824 7.94219e-19)
(-4.45695 4.36447 0)
(-4.44542 4.58615 1.82888e-19)
(-3.14636 0.0117454 3.61312e-19)
(-3.20493 0.959505 0)
(-3.5498 1.92217 0)
(-3.79727 2.7404 -3.8983e-19)
(-3.87639 3.32984 3.12875e-19)
(-3.85064 3.67799 -1.16323e-18)
(-3.88263 3.83716 0)
(-3.878 4.005 -2.25203e-18)
(-3.87917 4.16952 2.36573e-18)
(-3.86382 4.32701 -5.1723e-19)
(-3.83541 4.47974 -1.01732e-18)
(-3.78776 4.62615 1.32011e-18)
(-3.35074 0.399536 -8.08742e-19)
(-3.50747 1.42452 7.2427e-19)
(-3.72046 2.3047 0)
(-3.78708 2.96786 6.08147e-19)
(-3.7574 3.38642 -5.89879e-19)
(-3.70691 3.64035 9.99962e-19)
(-3.64756 3.78101 0)
(-3.61683 3.908 -1.4176e-18)
(-3.58897 4.02298 -2.9005e-18)
(-3.56208 4.13108 1.83372e-18)
(-3.53368 4.23403 1.59852e-18)
(-3.49909 4.33121 -3.25173e-18)
(-3.44482 0.920864 5.0338e-19)
(-3.64857 1.78419 -5.78978e-19)
(-3.70857 2.52173 1.25253e-18)
(-3.67014 3.04113 0)
(-3.58009 3.35604 -4.14611e-18)
(-3.48918 3.54144 3.81727e-18)
(-3.41171 3.66257 1.74949e-18)
(-3.35096 3.77077 1.17551e-18)
(-3.29872 3.86526 0)
(-3.25529 3.94997 0)
(-3.21809 4.02559 0)
(-3.18419 4.09164 -4.27703e-19)
(-3.53428 1.22063 1.22088e-18)
(-3.74471 1.96258 0)
(-3.67396 2.55623 -1.11718e-18)
(-3.55848 2.99535 2.58475e-18)
(-3.41572 3.25298 2.17479e-18)
(-3.28759 3.41067 -3.90283e-18)
(-3.18208 3.52146 1.84058e-18)
(-3.09647 3.61407 -6.12471e-18)
(-3.02707 3.69086 3.33087e-20)
(-2.97322 3.75442 -1.67266e-19)
(-2.93232 3.80535 1.9397e-19)
(-2.90248 3.84393 5.80167e-18)
(-3.65195 1.35398 -2.76943e-18)
(-3.83286 1.99976 1.90048e-18)
(-3.668 2.50576 -2.65737e-18)
(-3.47941 2.87277 -2.51265e-18)
(-3.27949 3.10017 -4.92823e-18)
(-3.10864 3.24807 -2.49852e-18)
(-2.97033 3.35442 -3.70119e-18)
(-2.8604 3.43764 6.24722e-18)
(-2.77481 3.50124 0)
(-2.71113 3.54738 5.21806e-18)
(-2.66635 3.57715 -7.22683e-18)
(-2.63873 3.59132 2.4359e-18)
(-3.79073 1.33883 -1.52365e-18)
(-3.95241 1.93589 -3.05466e-18)
(-3.68598 2.3728 4.52909e-18)
(-3.42822 2.68904 0)
(-3.17132 2.90769 -2.96066e-18)
(-2.95433 3.05999 4.41446e-18)
(-2.7807 3.16965 -2.28555e-19)
(-2.64564 3.24973 -3.83227e-20)
(-2.54355 3.30456 -3.21004e-18)
(-2.47013 3.33668 -5.80812e-18)
(-2.42163 3.34821 2.55477e-18)
(-2.39552 3.3415 -2.52109e-18)
(-3.97309 1.24304 1.79693e-18)
(-4.10527 1.78816 0)
(-3.75147 2.15643 0)
(-3.41514 2.45935 0)
(-3.09811 2.68678 2.84147e-18)
(-2.83145 2.85427 0)
(-2.6193 2.97502 -1.91481e-19)
(-2.45704 3.05813 7.8168e-18)
(-2.33745 3.10835 1.1664e-19)
(-2.25407 3.1295 3.08698e-18)
(-2.20157 3.12545 -2.98162e-18)
(-2.17622 3.09991 8.6356e-18)
(-4.19552 1.06391 6.27792e-21)
(-4.33565 1.60618 8.21946e-18)
(-3.87432 1.89568 -2.40616e-18)
(-3.44481 2.19514 0)
(-3.06344 2.44343 0)
(-2.74395 2.6361 0)
(-2.49149 2.77636 0)
(-2.30055 2.86885 4.29329e-18)
(-2.16245 2.9192 -1.57956e-17)
(-2.06862 2.93286 -7.45255e-18)
(-2.01142 2.91582 6.96678e-18)
(-1.98577 2.87388 3.60107e-18)
(-4.5029 1.09901 -6.38587e-18)
(-4.49487 1.29352 -5.14602e-18)
(-3.96192 1.53861 -2.74854e-18)
(-3.457 1.88093 0)
(-3.03376 2.17206 0)
(-2.6781 2.40548 6.35179e-18)
(-2.39385 2.57576 -1.09601e-17)
(-2.17738 2.686 1.9591e-17)
(-2.02197 2.7424 1.30516e-17)
(-1.91809 2.75255 7.79353e-18)
(-1.85599 2.7253 -7.2945e-18)
(-1.82931 2.66906 4.96955e-19)
(-3.86145 0.394794 -1.75957e-18)
(-3.92019 0.804702 0)
(-3.52555 1.11804 4.00788e-18)
(-3.15941 1.50857 -1.23719e-17)
(-2.85466 1.87208 1.11399e-17)
(-2.55616 2.16302 3.04661e-19)
(-2.29003 2.37352 5.82374e-18)