/*--------------------------------*- C++ -*----------------------------------*\
| =========                 |                                                 |
| \\      /  F ield         | OpenFOAM: The Open Source CFD Toolbox           |
|  \\    /   O peration     | Version:  v1912                                 |
|   \\  /    A nd           | Website:  www.openfoam.com                      |
|    \\/     M anipulation  |                                                 |
\*---------------------------------------------------------------------------*/
FoamFile
{
    version     2.0;
    format      ascii;
    class       volScalarField;
    location    "50";
    object      epsilon;
}
// * * * * * * * * * * * * * * * * * * * * * * * * * * * * * * * * * * * * * //

dimensions      [0 2 -3 0 0 0 0];


internalField   nonuniform List<scalar> 
3072
(
33.6977
55.766
164.69
262.551
320.018
360.471
389.586
410.384
422.709
426.909
433.375
426.212
143.445
145.967
198.026
227.89
238.208
240.917
237.133
232.289
226.963
222.641
218.961
214.351
214.531
184.705
191.309
194.125
192.501
185.439
178.834
174.402
172.061
171.69
172.403
173.645
253.695
179.897
170.558
164.602
157.094
150.459
147.143
146.929
149.494
154.184
160.318
167.04
265.648
163.47
148.24
140.874
134.054
130.656
130.36
133.117
138.479
145.953
155.044
165.093
259.861
147.828
130.426
123.233
118.639
117.595
119.24
123.671
130.369
139.023
149.49
161.442
244.981
134.596
117.317
110.416
107.669
107.822
110.611
115.569
122.229
130.476
140.491
152.505
225.991
124.002
108.124
101.563
99.7631
100.557
103.507
108.013
113.581
120.173
128.284
138.692
200.017
117.394
103.979
96.4392
94.5961
95.3426
97.7444
101.176
105.117
109.58
115.247
123.251
180.164
114.612
106.077
96.7824
92.9725
92.3096
93.3016
95.313
97.5795
100.206
103.991
110.07
142.41
115.03
108.621
98.7583
93.42
90.9011
90.2382
90.6091
91.4689
93.0424
96.3055
101.757
154.668
127.122
119.085
104.408
95.5756
91.009
88.261
87.3536
87.5131
88.9372
93.0277
98.1237
414.472
395.11
365.004
331.935
292.427
252.522
209.566
167.209
124.162
86.5941
55.651
71.6998
209.25
201.84
191.61
179.535
166.62
155.03
148.473
147.497
153.138
162.868
176.286
224.45
174.725
174.016
170.185
163.536
154.766
145.974
142.24
142.932
152.685
176.046
223.932
342.316
173.088
176.457
177.317
174.42
167.465
158.331
151.497
149.62
157.483
183.259
251.749
442.64
174.998
183.256
187.408
187.974
183.367
175.111
166.739
162.982
168.929
195.191
271.995
528.958
174.023
185.508
194.079
198.257
198.086
192.69
185.039
180.558
185.494
211.854
294.685
612.006
166.13
179.953
192.101
200.389
204.071
203.533
200.167
197.652
203.263
229.908
317.419
696.846
151.629
165.886
179.666
191.825
201.019
205.69
206.653
208.636
217.943
247.34
340.845
792.09
134.238
146.938
159.536
172.308
185.029
195.756
203.93
211.487
225.348
258.458
358.862
877.973
118.838
128.461
136.795
146.095
158.51
172.361
186.163
200.828
221.656
261.638
372.144
962.012
108.28
113.395
115.343
118.358
126.601
139.772
155.795
174.811
200.687
246.199
370.108
1052.05
100.432
98.7249
94.1357
91.2631
94.4702
104.616
119.195
138.507
164.948
211.249
343.569
1136.03
37.2266
61.1336
169.28
264.693
321.316
361.848
390.673
411.117
423.259
427.692
434.169
427.567
148.952
147.215
198.759
228.813
238.577
240.817
237.73
232.554
227.427
223.187
219.58
215.002
219.153
185.161
191.842
194.631
192.812
185.621
179.125
174.65
172.343
171.975
172.691
173.931
257.898
180.46
170.822
164.779
157.16
150.488
147.176
146.967
149.542
154.211
160.312
166.983
269.389
163.947
148.289
140.804
133.923
130.493
130.196
132.938
138.27
145.672
154.679
164.617
262.51
148.255
130.318
122.994
118.347
117.284
118.901
123.296
129.911
138.465
148.785
160.58
247.502
134.88
117.113
110.065
107.272
107.393
110.142
115.029
121.59
129.696
139.543
151.351
229.975
124.437
107.893
101.173
99.32
100.06
102.945
107.361
112.812
119.25
127.172
137.36
203.996
118.037
103.87
96.0932
94.1502
94.8127
97.1245
100.45
104.26
108.556
114.01
121.767
183.174
115.389
106.03
96.4532
92.5285
91.757
92.6486
94.5389
96.6607
99.0989
102.623
108.394
144.942
115.854
108.593
98.4477
92.976
90.345
89.5451
89.7972
90.5017
91.8508
94.7696
99.8512
155.995
127.511
118.803
104.042
95.1329
90.4664
87.5869
86.4504
86.4698
87.6139
91.2717
96.042
415.993
395.903
366.721
332.521
294.038
252.992
210.833
167.625
124.9
86.8571
55.9534
71.9789
209.91
202.385
192.143
179.953
167.05
155.387
148.838
147.864
153.592
163.391
176.901
225.239
174.989
174.242
170.374
163.687
154.909
146.139
142.435
143.178
153.027
176.521
224.637
343.464
172.969
176.287
177.12
174.213
167.293
158.226
151.492
149.696
157.698
183.661
252.478
444.078
174.415
182.577
186.723
187.322
182.807
174.685
166.5
162.893
169.033
195.532
272.71
530.658
172.96
184.385
192.922
197.115
197.068
191.891
184.506
180.269
185.464
212.104
295.386
613.876
164.782
178.472
190.599
198.97
202.779
202.431
199.34
197.153
203.071
230.082
318.054
698.993
150.091
164.233
178.014
190.245
199.574
204.462
205.689
207.979
217.647
247.425
341.488
794.447
132.54
145.186
157.92
170.855
183.721
194.599
202.963
210.785
224.966
258.485
359.501
880.729
116.935
126.585
135.285
144.936
157.584
171.569
185.469
200.265
221.3
261.617
372.805
965.253
106.201
111.474
114.005
117.492
126.095
139.446
155.535
174.57
200.508
246.263
370.819
1055.71
98.4526
97.1014
93.2333
90.7346
94.3072
104.664
119.309
138.605
165.018
211.451
344.297
1140.43
37.6724
61.7357
170.261
265.639
322.074
362.58
391.884
413.1
425.918
429.942
436.371
429.53
149.934
148.057
199.742
229.591
239.297
241.522
238.568
233.578
228.486
224.072
220.429
215.808
220.236
186.334
192.873
195.534
193.6
186.387
179.925
175.462
173.136
172.737
173.458
174.708
259.895
181.688
171.9
165.686
157.973
151.261
147.936
147.717
150.287
154.976
161.118
167.847
271.769
165.184
149.321
141.7
134.732
131.261
130.94
133.667
139.006
146.455
155.527
165.56
264.438
149.41
131.303
123.859
119.136
118.032
119.617
123.988
130.619
139.207
149.613
161.511
250.201
136.069
118.047
110.898
108.027
108.107
110.805
115.665
122.216
130.347
140.252
152.17
231.715
125.48
108.809
101.97
100.042
100.725
103.555
107.925
113.34
119.767
127.713
137.976
206.169
119.126
104.722
96.8513
94.8362
95.4375
97.6865
100.949
104.699
108.951
114.395
122.191
185.477
116.616
106.93
97.2184
93.1937
92.3414
93.1699
94.9863
97.0357
99.4149
102.919
108.721
146.718
117.128
109.576
99.2334
93.6436
90.8991
90.0124
90.2019
90.8346
92.1343
95.0554
100.181
157.941
129.078
119.991
104.886
95.8059
91.0037
88.014
86.799
86.7812
87.9033
91.5923
96.3913
417.806
397.503
367.988
333.629
294.795
253.582
211.166
167.803
124.96
86.8681
55.9458
72.0153
210.695
203.134
192.835
180.583
167.594
155.841
149.212
148.197
153.863
163.641
177.114
225.456
175.779
175.033
171.148
164.421
155.576
146.696
142.919
143.592
153.381
176.859
224.99
343.95
173.895
177.254
178.098
175.166
168.17
158.993
152.124
150.237
158.139
184.054
252.907
444.797
175.456
183.71
187.891
188.485
183.89
175.638
167.279
163.541
169.55
195.971
273.183
531.555
174.032
185.575
194.191
198.4
198.305
193.005
185.437
181.031
186.071
212.62
295.896
614.968
165.741
179.584
191.835
200.262
204.055
203.609
200.369
198.012
203.779
230.658
318.655
700.15
150.829
165.112
179.025
191.367
200.759
205.621
206.741
208.882
218.396
248.076
342.154
795.718
133.048
145.786
158.595
171.635
184.622
195.572
203.93
211.673
225.745
259.161
360.212
881.896
117.313
126.988
135.645
145.319
158.086
172.207
186.193
201.006
222.004
262.292
373.512
966.274
106.547
111.765
114.129
117.551
126.22
139.715
155.939
175.064
201.038
246.8
371.425
1056.92
98.7146
97.2357
93.131
90.5843
94.1916
104.668
119.442
138.847
165.328
211.805
344.794
1141.35
37.1299
60.3986
168.537
264.712
321.428
361.637
390.566
411.773
423.957
428.55
435.129
428.271
148.746
147.899
199.302
229.421
239.111
241.203
238.133
233.18
227.951
223.659
219.964
215.325
220.172
185.943
192.502
195.284
193.417
186.14
179.625
175.143
172.751
172.313
172.979
174.17
256.613
181.101
171.494
165.454
157.778
151.042
147.659
147.393
149.851
154.449
160.498
167.15
271.366
164.638
148.926
141.473
134.549
131.034
130.671
133.295
138.527
145.858
154.819
164.742
260.247
148.67
130.952
123.662
118.951
117.826
119.335
123.618
130.136
138.612
148.875
160.648
237.41
134.718
117.7
110.731
107.869
107.927
110.563
115.339
121.801
129.818
139.591
151.35
224.054
124.069
108.435
101.822
99.9217
100.59
103.374
107.684
113.034
119.376
127.206
137.313
200.64
117.77
104.404
96.76
94.7663
95.3596
97.5775
100.804
104.516
108.714
114.068
121.729
181.521
115.183
106.599
97.1428
93.1866
92.3293
93.1391
94.9317
96.9591
99.3003
102.729
108.415
143.522
115.629
109.115
99.1551
93.657
90.9529
90.0522
90.2267
90.8392
92.0942
94.9251
99.9687
156.03
127.691
119.49
104.839
95.8571
91.0949
88.1182
86.8755
86.8396
87.9027
91.4769
96.2564
416.668
396.815
367.423
333.34
294.678
253.65
211.326
168.045
125.178
87.0328
56.0541
72.1119
210.188
202.686
192.46
180.304
167.416
155.771
149.219
148.243
153.961
163.757
177.256
225.659
175.204
174.471
170.641
164.002
155.262
146.515
142.82
143.566
153.416
176.92
225.077
344.098
173.161
176.532
177.398
174.551
167.69
158.65
151.918
150.117
158.107
184.075
252.959
444.862
174.568
182.789
187.007
187.598
183.25
175.168
166.983
163.361
169.479
195.969
273.212
531.549
173.049
184.539
193.18
197.447
197.511
192.414
185.044
180.793
185.962
212.588
295.907
614.861
164.774
178.504
190.716
199.213
203.139
202.886
199.864
197.713
203.625
230.622
318.636
700.035
149.996
164.133
177.941
190.25
199.732
204.807
206.151
208.505
218.222
248.028
342.175
795.612
132.431
145.034
157.717
170.63
183.589
194.666
203.243
211.231
225.516
259.099
360.229
881.83
116.899
126.509
135.097
144.597
157.21
171.339
185.466
200.495
221.718
262.17
373.517
966.24
106.291
111.543
113.944
117.212
125.634
139.009
155.253
174.522
200.698
246.624
371.403
1056.64
98.6573
97.2711
93.2252
90.5337
93.8749
104.162
118.864
138.316
164.947
211.563
344.718
1141.06
410.723
225.591
151.391
117.842
101.566
92.8452
88.106
85.4727
85.6171
88.3258
92.8589
94.039
311.514
270.25
199.075
146.783
116.218
99.218
89.9882
85.3451
85.7906
89.8789
90.9979
87.593
201.027
217.105
196.687
159.414
129.24
108.065
94.1545
87.0285
88.6072
89.4309
84.6765
71.3356
139.892
159.974
165.508
153.808
130.911
111.907
100.522
97.0381
92.7583
81.6089
61.1303
39.2567
90.9445
81.7902
70.8064
65.2589
66.5243
73.4241
84.6578
100.84
123.108
158.704
242.315
576.141
75.7371
59.5592
49.368
45.8742
47.1623
51.5826
59.0036
70.547
87.0016
111.649
156.6
282.509
50.8235
39.4428
36.1772
36.5075
38.1361
40.9752
45.4664
52.6573
63.4285
79.9047
105.107
162.269
31.0429
30.8938
31.9402
33.5858
35.3546
37.8399
41.4425
46.7304
54.4378
66.0683
83.1192
112.48
408.6
224.135
150.393
117.296
101.107
92.3261
87.4625
84.5097
84.478
86.7645
90.8998
92.0562
310.469
269.033
198.073
146.148
115.785
98.7377
89.4308
84.3678
84.5286
88.0956
89.1457
85.9597
200.598
216.282
195.815
158.818
128.832
107.58
93.6789
86.1269
87.3474
87.9372
83.3449
70.5509
139.6
159.435
164.779
153.14
130.428
111.448
99.8913
96.1014
91.6663
80.5698
60.5274
39.2305
89.227
80.9421
70.3619
65.0678
66.4835
73.5778
84.9102
101.105
123.341
158.996
242.852
577.754
74.7456
59.3569
49.1643
45.7145
47.0965
51.6581
59.1866
70.7883
87.2553
111.921
156.981
283.137
50.6016
39.3517
36.0132
36.3394
38.0408
40.9686
45.547
52.8095
63.6281
80.1342
105.393
162.642
30.9254
30.7057
31.7452
33.4278
35.2596
37.8138
41.4819
46.8324
54.5868
66.258
83.3588
112.772
410.216
225.877
151.787
118.179
101.748
92.8151
87.8475
84.8138
84.7651
87.0778
91.254
92.3502
311.456
270.086
198.976
146.815
116.247
99.089
89.7214
84.6298
84.795
88.4251
89.4473
86.1474
201.114
217.04
196.558
159.32
129.161
107.82
93.8501
86.3113
87.5622
88.1823
83.5033
70.4423
139.966
159.949
165.358
153.641
130.741
111.643
100.003
96.2495
91.8681
80.706
60.4974
39.0658
89.3932
80.7863
70.1238
64.8809
66.3457
73.5142
84.9185
101.186
123.475
159.15
243.044
578.363
74.6499
59.0748
48.9785
45.6542
47.0774
51.6571
59.1933
70.8136
87.2978
111.962
156.996
283.191
50.4135
39.2378
36.0426
36.4037
38.1051
41.0122
45.5681
52.8185
63.6319
80.1236
105.344
162.556
30.9236
30.8082
31.8802
33.5468
35.3434
37.8625
41.4996
46.8246
54.5616
66.2115
83.2727
112.645
410.858
226.038
151.847
118.321
101.913
92.984
88.0034
84.9252
84.8483
87.0543
91.1828
92.3813
311.461
270.211
199.337
147.258
116.63
99.3924
89.9555
84.7687
84.8941
88.4096
89.5237
86.3633
200.899
216.879
196.667
159.571
129.482
108.112
94.1074
86.4621
87.6368
88.3217
83.7706
70.9839
139.741
159.667
165.118
153.574
130.876
111.79
100.138
96.3382
92.0351
81.0292
60.9962
39.4455
89.5453
81.1341
70.3488
64.8574
66.1591
73.16
84.4655
100.716
123.081
158.859
242.885
578.342
75.1016
59.469
49.1145
45.5816
46.9231
51.41
58.872
70.4458
86.9464
111.685
156.813
283.144
50.7975
39.3963
35.9917
36.2988
37.9777
40.8615
45.3818
52.5886
63.3769
79.8976
105.192
162.534
30.972
30.7343
31.7546
33.4368
35.2502
37.7696
41.3949
46.6991
54.4169
66.0784
83.1976
112.668
127.542
135.749
135.468
126.336
111.124
100.634
93.6441
79.0975
53.4573
35.8515
25.8808
19.8949
115.26
117.868
113.721
104.487
95.0058
86.9002
72.4218
49.4993
31.6831
22.5852
18.1446
17.2874
105.605
105.346
99.6138
91.8483
83.7671
71.6597
52.3847
33.8502
23.034
17.9095
15.6933
17.1609
98.4186
96.2891
89.8944
81.992
71.741
56.0416
38.107
25.3236
18.7379
15.5641
14.4574
20.1069
24.9499
30.0137
31.5585
33.261
35.8741
39.7944
45.2199
51.9884
60.6057
72.3634
88.7911
110.513
23.8344
26.8483
28.5658
31.1751
34.9593
40.1293
46.7551
54.8257
64.4604
76.3801
91.1784
106.667
23.2193
23.6496
25.7058
28.9698
33.5002
39.5509
47.0713
55.9957
66.2594
78.0608
91.2005
101.523
24.6991
20.3791
22.6157
26.2223
31.1207
37.6202
45.7214
55.2257
65.8883
77.5526
89.479
96.2885
127.13
135.193
134.775
125.635
110.572
99.8972
92.5455
77.8229
52.7896
35.5463
25.7239
19.8506
114.835
117.377
113.146
103.888
94.3142
85.8112
71.1323
48.7143
31.3507
22.4115
18.0278
17.2154
105.214
104.928
99.134
91.2403
82.8936
70.5025
51.4506
33.3945
22.8246
17.7752
15.586
17.0812
97.9944
95.8557
89.3907
81.2888
70.7839
55.0795
37.5138
25.0494
18.5908
15.4537
14.3619
20.004
24.7774
29.7415
31.3835
33.154
35.8168
39.7869
45.2652
52.0882
60.7533
72.5531
89.0229
110.793
23.6819
26.6529
28.4342
31.086
34.907
40.1188
46.7933
54.9192
64.6063
76.5729
91.4128
106.955
23.0869
23.5044
25.6009
28.8894
33.4471
39.5357
47.1066
56.0917
66.4161
78.2755
91.4628
101.822
24.6304
20.2941
22.5394
26.1565
31.0745
37.608
45.7601
55.3289
66.059
77.789
89.7756
96.6195
127.507
135.648
135.27
126.068
110.819
100.121
92.8612
78.252
53.0231
35.6524
25.8034
19.9042
115.182
117.754
113.517
104.197
94.5827
86.2265
71.6601
49.0842
31.5454
22.5437
18.1511
17.3191
105.528
105.238
99.4276
91.5456
83.2887
71.0529
51.9476
33.6919
23
17.913
15.7217
17.2041
98.3242
96.1671
89.7023
81.6782
71.2997
55.6391
37.918
25.2818
18.7413
15.5813
14.492
20.1768
24.879
29.9795
31.5352
33.246
35.8656
39.795
45.2399
52.0306
60.6702
72.4429
88.8755
110.587
23.7708
26.8066
28.5341
31.1491
34.9342
40.1097
46.7444
54.8259
64.4747
76.4032
91.1995
106.683
23.1552
23.5971
25.6657
28.9343
33.4631
39.5143
47.0408
55.9689
66.2404
78.0453
91.1779
101.491
24.6228
20.3239
22.5729
26.1833
31.0793
37.5761
45.6779
55.1846
65.8527
77.5185
89.436
96.2278
127.228
135.342
134.988
125.81
110.85
100.117
92.8676
78.4139
53.2732
35.7842
25.8494
19.8885
114.87
117.439
113.25
103.978
94.4798
86.0754
71.5969
49.1453
31.5702
22.5044
18.0801
17.2382
105.186
104.916
99.1477
91.2711
83.0337
70.7991
51.8139
33.6266
22.925
17.8201
15.6204
17.1056
97.9289
95.7996
89.3599
81.3121
70.9367
55.3418
37.7407
25.1663
18.6393
15.48
14.3898
20.0388
24.7613
29.7752
31.4227
33.1817
35.8193
39.7601
45.2026
51.9888
60.629
72.4261
88.9165
110.732
23.6643
26.6746
28.4616
31.1103
34.9167
40.1039
46.7499
54.8444
64.5121
76.4756
91.3194
106.908
23.0685
23.5137
25.6217
28.9136
33.4648
39.536
47.0807
56.0383
66.3445
78.1961
91.3573
101.772
24.6116
20.2913
22.5538
26.1788
31.0967
37.6198
45.7513
55.2956
66.0084
77.7284
89.6832
96.5816
92.0711
88.8575
81.6552
72.1858
59.4033
43.2366
28.9615
20.3385
16.0612
13.8299
13.2224
23.7175
85.209
81.3732
73.2947
62.282
48.4393
33.9232
23.1235
17.1268
14.1358
12.3809
11.662
20.6995
77.2063
73.062
64.4876
52.8477
39.489
27.3475
19.2093
14.8605
12.6402
11.1766
10.3289
17.4109
68.1688
63.9889
55.5516
44.3235
32.4292
22.6238
16.4176
13.1439
11.4302
10.1816
9.2338
14.8593
58.6164
54.6412
46.9711
36.9074
26.8936
19.1165
14.3168
11.7812
10.4306
9.36294
8.32463
12.4385
49.2226
45.689
39.1623
30.656
22.5518
16.4433
12.6837
10.675
9.59767
8.68881
7.55782
10.2194
40.6403
37.7254
32.4406
25.5678
19.1785
14.3965
11.4094
9.78111
8.90656
8.13022
6.90061
8.09424
33.468
31.1719
27.0283
21.6302
16.6493
12.8811
10.4552
9.09113
8.34868
7.65859
6.32628
6.04139
28.0914
26.3109
23.0687
18.8595
14.9349
11.9012
9.88084
8.67546
7.9587
7.26191
5.79482
4.08971
24.9431
23.4974
20.8517
17.4751
14.2425
11.6496
9.81478
8.61239
7.80444
7.00649
5.17204
2.35219
25.7996
24.3193
21.8628
18.7818
15.6993
13.1353
11.1404
9.65038
8.41226
7.0806
4.59561
1.01815
48.8193
46.1889
41.9995
36.6652
31.0768
25.5236
20.7458
16.8049
13.2421
9.49201
4.71912
0.845287
29.3707
17.581
19.6455
23.2514
28.1262
34.6373
42.8729
52.6263
63.5203
74.9879
85.518
90.641
24.5392
14.8714
16.8777
20.2792
24.8354
30.987
38.9179
48.4423
59.0838
70.0768
79.4876
83.936
19.76
12.3966
14.393
17.4778
21.5351
27.0645
34.336
43.2219
53.218
63.4574
71.8806
75.983
16.0145
10.3645
12.2685
14.9797
18.4555
23.2215
29.6032
37.5432
46.5662
55.791
63.2402
67.0435
12.9258
8.71563
10.524
12.8581
15.7505
19.7245
25.1219
31.9444
39.7798
47.7988
54.2368
57.6832
10.2791
7.40597
9.14782
11.1385
13.5033
16.7443
21.185
26.859
33.4278
40.158
45.5523
48.5622
7.98015
6.38446
8.11224
9.81719
11.7456
14.3707
17.9712
22.5844
27.9383
33.4102
37.7837
40.2961
5.92227
5.61199
7.38876
8.88324
10.4888
12.6461
15.576
19.2973
23.5875
27.9318
31.3743
33.3626
4.06594
5.06269
7.00804
8.41042
9.81533
11.636
14.0814
17.1228
20.5583
23.963
26.6235
28.1234
2.42934
4.65526
6.92408
8.40437
9.82005
11.5388
13.7418
16.3567
19.1817
21.863
23.9254
25.0133
1.09942
4.40197
7.46663
9.54817
11.3983
13.398
15.7384
18.3289
20.9358
23.2655
25.0047
25.8747
0.840431
4.98852
10.9363
16.4446
21.6888
26.9939
32.2792
37.2588
41.8555
45.3849
47.6954
48.7592
91.5655
88.3269
81.0368
71.3955
58.5088
42.5311
28.5869
20.16
15.9509
13.7387
13.14
23.62
84.6052
80.7171
72.5625
61.4682
47.677
33.4182
22.8719
16.9994
14.0477
12.3024
11.5939
20.6249
76.5395
72.3217
63.7001
52.0746
38.8658
26.9763
19.0264
14.7615
12.565
11.1046
10.2639
17.3427
67.4901
63.2329
54.7782
43.6302
31.9251
22.3387
16.2746
13.0612
11.3622
10.1121
9.16883
14.7915
57.9786
53.9388
46.2677
36.3149
26.4874
18.8895
14.1987
11.7082
10.3665
9.29349
8.25666
12.3756
48.6526
45.0841
38.5607
30.1671
22.2246
16.2572
12.5815
10.6078
9.53538
8.61817
7.48542
10.1578
40.171
37.2321
31.9504
25.175
18.9144
14.2402
11.3177
9.71703
8.84482
8.05812
6.82276
8.03706
33.0859
30.7776
26.6387
21.3162
16.433
12.7457
10.3699
9.02786
8.28633
7.58545
6.24277
5.9902
27.7699
25.9885
22.7563
18.6031
14.7526
11.7796
9.79657
8.60889
7.89313
7.18736
5.70946
4.04834
24.6476
23.2177
20.5862
17.2532
14.0761
11.53
9.72577
8.53948
7.73449
6.92994
5.08831
2.32491
25.4916
24.0307
21.5966
18.5539
15.5196
12.9957
11.0303
9.55579
8.32622
6.99644
4.51414
1.00216
48.2549
45.6458
41.4933
36.2199
30.7071
25.2311
20.5288
16.6219
13.1016
9.37439
4.62979
0.823206
29.3089
17.5324
19.5923
23.202
28.0917
34.6336
42.9197
52.7405
63.7107
75.2573
85.8674
91.0291
24.5046
14.8408
16.8415
20.2446
24.8133
30.9932
38.9733
48.5668
59.2911
70.3736
79.887
84.3863
19.7346
12.3768
14.3691
17.4556
21.5238
27.0792
34.3974
43.3522
53.4352
63.7742
72.3146
76.4831
16.0032
10.3523
12.2535
14.9669
18.4526
23.2419
29.6666
37.673
46.7834
56.1124
63.6889
67.5684
12.9158
8.70808
10.5152
12.852
15.7532
19.7476
25.1834
32.0671
39.9866
48.1095
54.6741
58.2044
10.2736
7.40152
9.14318
11.137
13.5096
16.7679
21.2416
26.9697
33.6156
40.4432
45.958
49.0522
7.97313
6.38171
8.11023
9.81868
11.7538
14.3934
18.0213
22.6808
28.1019
33.6614
38.1421
40.7353
5.91633
5.61012
7.3883
8.88654
10.498
12.6673
15.6197
19.3795
23.7263
28.1457
31.68
33.7416
4.06005
5.06091
7.00779
8.41453
9.8248
11.6561
14.1196
17.1936
20.6756
24.1441
26.8799
28.4436
2.42561
4.65272
6.92329
8.40786
9.82886
11.5575
13.7769
16.4201
19.2863
22.0208
24.1449
25.2878
1.09766
4.39871
7.46312
9.54859
11.4042
13.4157
15.7744
18.3941
21.0435
23.4226
25.2153
26.1413
0.839993
4.98532
10.9253
16.4311
21.6795
27.0057
32.3367
37.3639
42.0479
45.6572
48.0481
49.2207
91.9532
88.7057
81.4419
71.8903
59.0782
43.0336
28.9079
20.3458
16.08
13.8526
13.2556
23.8032
85.0731
81.1956
73.0742
62.0393
48.2448
33.8523
23.1331
17.1539
14.1606
12.4048
11.6904
20.7555
77.078
72.8882
64.2929
52.6794
39.401
27.3503
19.2462
14.8946
12.6664
11.2
10.3534
17.4606
68.0728
63.8524
55.4091
44.2303
32.4136
22.6632
16.4646
13.1792
11.4555
10.2033
9.25489
14.8922
58.5686
54.5651
46.8938
36.8794
26.9231
19.1726
14.3661
11.815
10.4539
9.38236
8.34246
12.4662
49.2152
45.6754
39.1456
30.6761
22.6059
16.5049
12.7311
10.7061
9.61826
8.70537
7.57214
10.235
40.6779
37.7589
32.4702
25.6177
19.2434
14.4572
11.453
9.80905
8.92428
8.14367
6.91074
8.10424
33.5215
31.2274
27.0839
21.6933
16.7151
12.9373
10.4941
9.11562
8.3635
7.66858
6.33147
6.043
28.1343
26.3654
23.1334
18.9222
14.9969
11.9508
9.91446
8.69602
7.97033
7.26795
5.79428
4.08719
24.9552
23.542
20.9116
17.5327
14.2976
11.693
9.84369
8.62979
7.81308
7.00857
5.16421
2.34624
25.7944
24.3502
21.9122
18.8337
15.7518
13.1752
11.1662
9.66424
8.41525
7.07514
4.58002
1.01313
48.7927
46.2201
42.0661
36.743
31.16
25.5885
20.7762
16.8146
13.2296
9.4669
4.6885
0.837234
29.275
17.5297
19.605
23.2139
28.0862
34.5932
42.8264
52.5795
63.4755
74.943
85.4628
90.5745
24.4727
14.829
16.8426
20.246
24.7999
30.9475
38.8752
48.3987
59.0416
70.0359
79.4432
83.8859
19.7091
12.3637
14.3643
17.4502
21.5056
27.0318
34.3005
43.1862
53.1848
63.4289
71.8577
75.9614
15.9818
10.3397
12.246
14.9577
18.4321
23.1959
29.576
37.5171
46.5446
55.7778
63.2412
67.0529
12.8997
8.69726
10.507
12.8413
15.7326
19.7055
25.1026
31.9276
39.7694
47.8003
54.2581
57.7184
10.2607
7.39306
9.13564
11.1264
13.4902
16.7311
21.1725
26.8501
33.4267
40.1703
45.5873
48.6145
7.9652
6.37611
8.10412
9.80908
11.7366
14.3623
17.9642
22.5819
27.9437
33.4296
37.8256
40.3568
5.91134
5.60751
7.3841
8.87852
10.4833
12.6417
15.5733
19.2994
23.5972
27.9546
31.4176
33.4246
4.05701
5.06135
7.0061
8.40844
9.81225
11.6353
14.0818
17.1288
20.5704
23.9874
26.6649
28.1815
2.42532
4.65559
6.92409
8.40403
9.81929
11.5406
13.7452
16.3652
19.1963
21.888
23.9641
25.0656
1.09806
4.40293
7.46802
9.54919
11.3988
13.4024
15.7446
18.3408
20.954
23.2932
25.0427
25.9244
0.842251
4.98854
10.9374
16.4437
21.6897
27.0007
32.2962
37.2826
41.8956
45.4364
47.7576
48.8358
91.4928
88.266
81.0134
71.4473
58.6692
42.7294
28.7201
20.2206
15.9767
13.7566
13.1621
23.6545
84.5536
80.6857
72.5785
61.5564
47.8308
33.5615
22.9531
17.034
14.0639
12.3167
11.6103
20.6491
76.525
72.3357
63.7621
52.1908
39.0064
27.0829
19.0812
14.7845
12.5777
11.118
10.2787
17.3602
67.5157
63.2912
54.8774
43.7609
32.051
22.4227
16.3159
13.0793
11.374
10.1258
9.18353
14.8081
58.0371
54.0291
46.3884
36.4475
26.5989
18.9592
14.233
11.7244
10.3784
9.30779
8.272
12.3895
48.7327
45.1891
38.6876
30.2923
22.3219
16.3168
12.6117
10.6231
9.5474
8.63289
7.5015
10.1719
40.2594
37.338
32.0712
25.2866
18.9981
14.2918
11.345
9.73178
8.85679
8.07275
6.83932
8.04981
33.1714
30.8749
26.746
21.4121
16.5041
12.7905
10.3947
9.04204
8.29799
7.59934
6.25935
6.00214
27.846
26.0733
22.8481
18.6837
14.8129
11.8184
9.8194
8.62257
7.90439
7.20017
5.72485
4.05754
24.7126
23.2908
20.6643
17.3216
14.1284
11.565
9.74737
8.55313
7.74539
6.9416
5.10137
2.33036
25.5538
24.1006
21.6686
18.618
15.5703
13.0306
11.0526
9.57114
8.33732
7.00664
4.52513
1.00519
48.3548
45.7597
41.6111
36.3268
30.7957
25.2938
20.5613
16.6456
13.1122
9.38203
4.63784
0.825698
29.2786
17.5255
19.603
23.2225
28.1164
34.6544
42.9268
52.73
63.6881
75.2251
85.8245
91.0327
24.4867
14.8359
16.8509
20.2637
24.8393
31.0208
38.9947
48.5781
59.2981
70.3829
79.9133
84.4455
19.7304
12.3759
14.3785
17.4734
21.5499
27.1113
34.4302
43.3826
53.469
63.8222
72.397
76.5954
16.0065
10.3548
12.2634
14.9834
18.4777
23.276
29.7073
37.7177
46.8375
56.1875
63.8067
67.7169
12.9239
8.71355
10.5259
12.8675
15.7768
19.7818
25.2284
32.1213
40.0539
48.1998
54.8069
58.3678
10.283
7.40984
9.15525
11.152
13.5317
16.8013
21.2884
27.0293
33.6905
40.5397
46.0921
49.219
7.98391
6.39307
8.1243
9.8342
11.7755
14.4261
18.069
22.7434
28.1811
33.7597
38.2688
40.8833
5.92544
5.62468
7.40501
8.90441
10.5207
12.7009
15.669
19.4449
23.8093
28.2449
31.7995
33.8736
4.06728
5.0787
7.02871
8.43764
9.85078
11.693
14.1738
17.2637
20.7648
24.246
26.9963
28.5649
2.43018
4.67262
6.94732
8.43598
9.86139
11.6029
13.8415
16.502
19.387
22.1327
24.2658
25.4074
1.10019
4.41813
7.49221
9.58338
11.4511
13.4802
15.8639
18.5039
21.1726
23.562
25.3602
26.2731
0.844351
5.00303
10.9638
16.4935
21.7799
27.1599
32.5506
37.6253
42.3426
45.9721
48.3626
49.484
)
;

boundaryField
{
    rotor
    {
        lowReCorrection 0;
        type            epsilonWallFunction;
        value           nonuniform List<scalar> 
192
(
33.6977
55.766
164.69
262.551
320.018
360.471
389.586
410.384
422.709
426.909
433.375
426.212
414.472
395.11
365.004
331.935
292.427
252.522
209.566
167.209
124.162
86.5941
55.651
71.6998
37.2266
61.1336
169.28
264.693
321.316
361.848
390.673
411.117
423.259
427.692
434.169
427.567
415.993
395.903
366.721
332.521
294.038
252.992
210.833
167.625
124.9
86.8571
55.9534
71.9789
37.6724
61.7357
170.261
265.639
322.074
362.58
391.884
413.1
425.918
429.942
436.371
429.53
417.806
397.503
367.988
333.629
294.795
253.582
211.166
167.803
124.96
86.8681
55.9458
72.0153
37.1299
60.3986
168.537
264.712
321.428
361.637
390.566
411.773
423.957
428.55
435.129
428.271
416.668
396.815
367.423
333.34
294.678
253.65
211.326
168.045
125.178
87.0328
56.0541
72.1119
33.6977
143.445
214.531
253.695
265.648
259.861
244.981
225.991
200.017
180.164
142.41
154.668
72.1119
225.659
344.098
444.862
531.549
614.861
700.035
795.612
881.83
966.24
1056.64
1141.06
37.2266
148.952
219.153
257.898
269.389
262.51
247.502
229.975
203.996
183.174
144.942
155.995
71.6998
224.45
342.316
442.64
528.958
612.006
696.846
792.09
877.973
962.012
1052.05
1136.03
37.6724
149.934
220.236
259.895
271.769
264.438
250.201
231.715
206.169
185.477
146.718
157.941
71.9789
225.239
343.464
444.078
530.658
613.876
698.993
794.447
880.729
965.253
1055.71
1140.43
37.1299
148.746
220.172
256.613
271.366
260.247
237.41
224.054
200.64
181.521
143.522
156.03
72.0153
225.456
343.95
444.797
531.555
614.968
700.15
795.718
881.896
966.274
1056.92
1141.35
)
;
    }
    stator
    {
        lowReCorrection 0;
        type            epsilonWallFunction;
        value           nonuniform List<scalar> 
192
(
48.8193
46.1889
41.9995
36.6652
31.0768
25.5236
20.7458
16.8049
13.2421
9.49201
4.71912
0.845287
0.840431
4.98852
10.9363
16.4446
21.6888
26.9939
32.2792
37.2588
41.8555
45.3849
47.6954
48.7592
48.2549
45.6458
41.4933
36.2199
30.7071
25.2311
20.5288
16.6219
13.1016
9.37439
4.62979
0.823206
0.839993
4.98532
10.9253
16.4311
21.6795
27.0057
32.3367
37.3639
42.0479
45.6572
48.0481
49.2207
48.7927
46.2201
42.0661
36.743
31.16
25.5885
20.7762
16.8146
13.2296
9.4669
4.6885
0.837234
0.842251
4.98854
10.9374
16.4437
21.6897
27.0007
32.2962
37.2826
41.8956
45.4364
47.7576
48.8358
48.3548
45.7597
41.6111
36.3268
30.7957
25.2938
20.5613
16.6456
13.1122
9.38203
4.63784
0.825698
0.844351
5.00303
10.9638
16.4935
21.7799
27.1599
32.5506
37.6253
42.3426
45.9721
48.3626
49.484
29.3707
24.5392
19.76
16.0145
12.9258
10.2791
7.98015
5.92227
4.06594
2.42934
1.09942
0.840431
23.7175
20.6995
17.4109
14.8593
12.4385
10.2194
8.09424
6.04139
4.08971
2.35219
1.01815
0.845287
29.3089
24.5046
19.7346
16.0032
12.9158
10.2736
7.97313
5.91633
4.06005
2.42561
1.09766
0.839993
23.62
20.6249
17.3427
14.7915
12.3756
10.1578
8.03706
5.9902
4.04834
2.32491
1.00216
0.823206
29.275
24.4727
19.7091
15.9818
12.8997
10.2607
7.9652
5.91134
4.05701
2.42532
1.09806
0.842251
23.8032
20.7555
17.4606
14.8922
12.4662
10.235
8.10424
6.043
4.08719
2.34624
1.01313
0.837234
29.2786
24.4867
19.7304
16.0065
12.9239
10.283
7.98391
5.92544
4.06728
2.43018
1.10019
0.844351
23.6545
20.6491
17.3602
14.8081
12.3895
10.1719
8.04981
6.00214
4.05754
2.33036
1.00519
0.825698
)
;
    }
    front
    {
        type            empty;
    }
    back
    {
        type            empty;
    }
}


// ************************************************************************* //
