/*--------------------------------*- C++ -*----------------------------------*\
| =========                 |                                                 |
| \\      /  F ield         | OpenFOAM: The Open Source CFD Toolbox           |
|  \\    /   O peration     | Version:  v1912                                 |
|   \\  /    A nd           | Website:  www.openfoam.com                      |
|    \\/     M anipulation  |                                                 |
\*---------------------------------------------------------------------------*/
FoamFile
{
    version     2.0;
    format      ascii;
    class       volScalarField;
    location    "50";
    object      k;
}
// * * * * * * * * * * * * * * * * * * * * * * * * * * * * * * * * * * * * * //

dimensions      [0 2 -2 0 0 0 0];


internalField   nonuniform List<scalar> 
3072
(
0.149527
0.293006
0.618022
0.862805
0.993767
1.0807
1.14159
1.18409
1.21062
1.22401
1.23481
1.22442
0.416244
0.742515
0.909248
1.17221
1.3987
1.59686
1.78092
1.94242
2.08781
2.21492
2.3183
2.38939
0.590314
1.14272
1.33121
1.61474
1.84537
2.02301
2.16936
2.29523
2.40925
2.51432
2.60861
2.68688
0.700604
1.30528
1.53475
1.79038
1.97763
2.1236
2.25152
2.37402
2.49671
2.62128
2.74517
2.86208
0.763221
1.35428
1.60184
1.82658
1.99224
2.12899
2.25515
2.38098
2.51145
2.64827
2.79028
2.93251
0.789396
1.34202
1.59868
1.81269
1.97207
2.10548
2.22952
2.35298
2.48064
2.61627
2.76283
2.91889
0.795149
1.31721
1.57672
1.77189
1.92295
2.05303
2.17399
2.29123
2.40822
2.53011
2.66318
2.8137
0.786591
1.27419
1.53214
1.71395
1.86347
1.99143
2.10592
2.21024
2.30698
2.40202
2.50548
2.62954
0.754502
1.20682
1.4899
1.65957
1.80603
1.92879
2.033
2.12063
2.19313
2.25637
2.32203
2.40611
0.729906
1.1391
1.45983
1.61954
1.75277
1.86415
1.95463
2.02473
2.07481
2.1111
2.14496
2.19142
0.647127
0.998732
1.38929
1.56271
1.68787
1.7871
1.86312
1.91798
1.95177
1.97322
1.99125
2.0142
0.717735
0.948661
1.31483
1.48825
1.60264
1.68906
1.75224
1.79539
1.82037
1.84191
1.85943
1.86454
1.20254
1.16668
1.10981
1.04386
0.961899
0.874015
0.773358
0.666023
0.546275
0.430175
0.320145
0.2533
2.41876
2.41121
2.36569
2.27912
2.15618
2.00556
1.83313
1.64376
1.4218
1.0983
0.740557
0.583844
2.74128
2.75943
2.74668
2.68191
2.56947
2.41946
2.24356
2.05526
1.85491
1.59623
1.17007
0.827026
2.96101
3.02476
3.04401
3.01738
2.92956
2.79199
2.62134
2.4358
2.24535
2.01614
1.61992
1.04267
3.06617
3.17682
3.24065
3.25425
3.20677
3.09974
2.95231
2.78522
2.61397
2.41416
2.05397
1.24076
3.07658
3.2203
3.33276
3.39616
3.40895
3.35672
3.25191
3.12098
2.98017
2.80813
2.48623
1.43855
2.9796
3.14821
3.30168
3.41999
3.48748
3.50673
3.47994
3.4114
3.32148
3.18761
2.89867
1.64363
2.7801
2.94943
3.12438
3.29318
3.43747
3.53463
3.58179
3.60611
3.60266
3.52671
3.26234
1.87135
2.52035
2.66053
2.82166
3.00926
3.21439
3.40423
3.55913
3.67718
3.77516
3.79383
3.58356
2.08859
2.26134
2.34692
2.45274
2.61064
2.83914
3.09888
3.35257
3.59084
3.81274
3.94611
3.83121
2.30753
2.04278
2.06058
2.0852
2.17099
2.37415
2.66309
2.98061
3.3112
3.6577
3.95523
3.99053
2.54035
1.84786
1.7974
1.74763
1.76911
1.92045
2.18886
2.51237
2.88094
3.29656
3.73333
4.05393
2.76456
0.156368
0.310214
0.630091
0.868214
0.996888
1.08361
1.14365
1.18565
1.21206
1.22586
1.23689
1.22742
0.424893
0.754183
0.912111
1.17912
1.40374
1.60389
1.78662
1.94871
2.09441
2.22168
2.32523
2.39617
0.597054
1.14982
1.33962
1.62389
1.85219
2.02894
2.17451
2.30073
2.41491
2.52014
2.61453
2.69274
0.70757
1.31315
1.54317
1.79675
1.98141
2.12631
2.25404
2.37741
2.50064
2.62558
2.74969
2.86659
0.769907
1.35982
1.60684
1.82911
1.99317
2.12943
2.25566
2.38222
2.51348
2.65075
2.79308
2.93526
0.795006
1.34712
1.60251
1.81388
1.97161
2.10442
2.22852
2.35276
2.48106
2.61725
2.76399
2.92018
0.800076
1.32175
1.57899
1.77088
1.92035
2.04976
2.17097
2.28885
2.40664
2.5292
2.66279
2.81354
0.794099
1.27803
1.53249
1.71191
1.85972
1.98677
2.10115
2.20585
2.30323
2.39891
2.50294
2.62752
0.763241
1.21071
1.48987
1.65697
1.80143
1.92278
2.02631
2.1138
2.18647
2.24998
2.31592
2.40048
0.738905
1.14265
1.45951
1.61648
1.74737
1.85679
1.94588
2.01512
2.0646
2.10034
2.13364
2.17989
0.653403
1.00126
1.38794
1.55879
1.68142
1.77838
1.85248
1.90569
1.93794
1.9577
1.97401
1.99594
0.721752
0.9459
1.30761
1.4813
1.59457
1.679
1.74002
1.78091
1.80318
1.82173
1.83668
1.84154
1.2054
1.16868
1.11319
1.04544
0.96527
0.875356
0.776339
0.667233
0.548358
0.431037
0.321256
0.253916
2.42516
2.41715
2.37121
2.28402
2.1607
2.00959
1.83696
1.64725
1.42504
1.10104
0.7423
0.585154
2.74688
2.76477
2.75163
2.68647
2.57373
2.42348
2.24745
2.05907
1.85859
1.59962
1.17273
0.828826
2.96533
3.02878
3.04783
3.02097
2.93308
2.79558
2.62505
2.43969
2.24935
2.02006
1.62321
1.04487
3.0687
3.17907
3.24283
3.25646
3.2092
3.10261
2.95566
2.78908
2.61824
2.41858
2.05792
1.24333
3.07769
3.22134
3.33375
3.39744
3.41059
3.3589
3.25486
3.12477
2.98468
2.8129
2.49077
1.4414
2.97965
3.14851
3.30236
3.42116
3.48929
3.50928
3.48316
3.41528
3.32612
3.19287
2.90364
1.6469
2.77887
2.94956
3.12598
3.29589
3.44075
3.53827
3.58601
3.61093
3.60789
3.53238
3.2681
1.87502
2.51615
2.65946
2.82435
3.01477
3.22117
3.41107
3.56554
3.68338
3.78166
3.80051
3.59006
2.09296
2.25136
2.34209
2.45477
2.61838
2.84999
3.11011
3.36279
3.59983
3.82084
3.95413
3.83904
2.31277
2.02609
2.05095
2.08454
2.17797
2.38741
2.67793
2.99457
3.32345
3.6682
3.96479
3.99987
2.54639
1.82759
1.78673
1.74695
1.77423
1.93289
2.20361
2.5276
2.89534
3.30919
3.74457
4.06456
2.77193
0.157373
0.312179
0.632446
0.870252
0.998669
1.0857
1.14678
1.18994
1.21695
1.22997
1.24094
1.23106
0.426624
0.757013
0.916094
1.18355
1.40894
1.61028
1.79384
1.95637
2.10224
2.22939
2.33284
2.40368
0.599091
1.15498
1.34627
1.63126
1.86036
2.03769
2.18349
2.30975
2.4239
2.52911
2.62359
2.70198
0.710839
1.31997
1.55141
1.80585
1.99102
2.13604
2.26365
2.38683
2.50999
2.63503
2.75941
2.87675
0.774374
1.36767
1.61619
1.83918
2.00337
2.13945
2.26531
2.39152
2.52251
2.65992
2.80255
2.94538
0.798819
1.35526
1.61209
1.82407
1.98187
2.11432
2.23792
2.36144
2.48928
2.6252
2.77222
2.92896
0.805373
1.32942
1.58853
1.78113
1.93045
2.05924
2.17947
2.29634
2.41319
2.53518
2.66864
2.8199
0.798609
1.28624
1.54207
1.72178
1.8693
1.99554
2.10871
2.21205
2.30809
2.40271
2.50613
2.63072
0.768336
1.21806
1.49884
1.66635
1.81048
1.93094
2.03313
2.11903
2.19007
2.25214
2.31706
2.40116
0.743593
1.15081
1.4684
1.62547
1.75605
1.86458
1.9523
2.01989
2.06765
2.10188
2.13412
2.1798
0.658725
1.00799
1.39619
1.56742
1.68991
1.78607
1.85884
1.91046
1.94107
1.95953
1.97517
1.99679
0.727048
0.953002
1.31647
1.48999
1.60298
1.68671
1.74654
1.78598
1.80678
1.82442
1.83919
1.8437
1.20887
1.17177
1.11577
1.04774
0.966951
0.876737
0.77719
0.667759
0.548594
0.431144
0.321299
0.254047
2.43252
2.42436
2.37808
2.2904
2.16639
2.01448
1.84095
1.65032
1.42724
1.10225
0.742966
0.585604
2.75629
2.77419
2.76082
2.69518
2.58166
2.43042
2.25325
2.06367
1.86208
1.6021
1.17416
0.829667
2.976
3.03973
3.0588
3.03161
2.94293
2.80428
2.63241
2.4456
2.2539
2.02347
1.62554
1.04606
3.07949
3.19059
3.25468
3.26832
3.2204
3.11262
2.96421
2.79604
2.62367
2.42275
2.06097
1.2448
3.08757
3.23214
3.34538
3.40909
3.42205
3.36963
3.26425
3.13255
2.99085
2.81779
2.49442
1.44317
2.98693
3.15693
3.31157
3.4317
3.5001
3.51962
3.49264
3.42356
3.33298
3.19825
2.90787
1.6488
2.7827
2.95439
3.13203
3.30343
3.44955
3.54761
3.59495
3.61898
3.61494
3.53824
3.27244
1.87705
2.51687
2.66047
2.826
3.01785
3.22619
3.41771
3.57301
3.69078
3.78824
3.80616
3.59458
2.09485
2.25084
2.34091
2.45277
2.61688
2.8505
3.11304
3.36757
3.60552
3.82656
3.9591
3.84321
2.31454
2.0263
2.04966
2.08122
2.17385
2.38428
2.67728
2.99629
3.32678
3.67229
3.96878
4.00332
2.54845
1.82884
1.78576
1.74359
1.76979
1.92863
2.20122
2.52712
2.89644
3.31129
3.74702
4.06733
2.7734
0.156268
0.307442
0.627526
0.867442
0.996611
1.08321
1.14385
1.18694
1.2133
1.22738
1.23839
1.22851
0.424506
0.755383
0.911527
1.17911
1.40333
1.60365
1.78698
1.94915
2.09472
2.22189
2.32532
2.39631
0.598954
1.15072
1.33919
1.62391
1.8528
2.03017
2.17603
2.30206
2.41585
2.52063
2.61463
2.6927
0.705524
1.31367
1.54363
1.7981
1.98365
2.12903
2.25668
2.37897
2.50131
2.62541
2.74885
2.86542
0.772677
1.36118
1.60875
1.83203
1.99666
2.13283
2.25868
2.3837
2.51362
2.64972
2.7911
2.93269
0.790354
1.34819
1.60488
1.81732
1.97556
2.10812
2.23136
2.35411
2.48084
2.61549
2.76085
2.91606
0.780582
1.32195
1.5819
1.77511
1.92489
2.05378
2.17378
2.29006
2.40609
2.52691
2.65889
2.80824
0.78151
1.27794
1.53601
1.71649
1.8645
1.99098
2.10416
2.2073
2.30296
2.39687
2.4991
2.62191
0.754923
1.2111
1.49372
1.66184
1.80643
1.92726
2.02973
2.11583
2.18696
2.24886
2.3131
2.39586
0.73069
1.14266
1.46313
1.62148
1.75253
1.86154
1.94975
2.01784
2.06606
2.10049
2.13245
2.17732
0.650471
1.00128
1.3914
1.56371
1.68665
1.78336
1.85679
1.90908
1.94031
1.95907
1.97453
1.99572
0.720962
0.948093
1.31228
1.48673
1.59996
1.6842
1.74473
1.78492
1.80633
1.82416
1.83875
1.84344
1.20663
1.17026
1.11448
1.04701
0.966584
0.876781
0.777492
0.668302
0.549144
0.431611
0.321647
0.25423
2.42557
2.41783
2.37228
2.28557
2.16264
2.01182
1.83928
1.6495
1.42703
1.10259
0.743278
0.585879
2.74697
2.76505
2.75234
2.68778
2.57562
2.42583
2.25005
2.0617
1.86105
1.60168
1.17416
0.829825
2.96425
3.02821
3.0477
3.02162
2.93453
2.79766
2.62756
2.44236
2.25193
2.02237
1.62501
1.04606
3.06593
3.17666
3.24136
3.25587
3.20967
3.10393
2.95769
2.7915
2.62078
2.42098
2.05997
1.24467
3.07321
3.21697
3.33
3.39452
3.40886
3.35884
3.25598
3.12667
2.987
2.81534
2.49299
1.44285
2.97338
3.14174
3.29539
3.41565
3.48522
3.50665
3.48244
3.41634
3.32803
3.19521
2.90595
1.64843
2.77174
2.94123
3.11686
3.28698
3.43327
3.53317
3.58322
3.61043
3.60897
3.53445
3.27045
1.87666
2.50971
2.65112
2.81398
3.00294
3.20973
3.40192
3.55964
3.68075
3.78135
3.80201
3.59238
2.09449
2.24726
2.33599
2.44548
2.6055
2.83549
3.09708
3.35306
3.59405
3.81884
3.95465
3.84083
2.31422
2.02507
2.04838
2.07853
2.16708
2.37201
2.6624
2.9816
3.31439
3.66347
3.96376
4.00129
2.54774
1.82918
1.78715
1.74298
1.76637
1.91922
2.18861
2.51347
2.88385
3.30168
3.74116
4.0652
2.77272
2.30837
1.35368
1.34037
1.37832
1.47521
1.55807
1.61482
1.65216
1.67915
1.71718
1.73135
1.71333
2.87619
2.23553
1.60243
1.41285
1.38955
1.4075
1.45561
1.48976
1.53622
1.59315
1.59132
1.53782
2.76042
2.51018
2.07018
1.62366
1.43184
1.34841
1.33779
1.35579
1.42842
1.4732
1.43217
1.30094
2.54313
2.44491
2.19207
1.83714
1.56664
1.39978
1.35874
1.39303
1.41571
1.35269
1.21174
0.943442
1.64753
1.50979
1.41863
1.42035
1.54275
1.77338
2.05889
2.39936
2.80276
3.27939
3.74968
3.36493
1.39614
1.22296
1.14713
1.19395
1.32944
1.4993
1.71153
1.98331
2.32118
2.74125
3.21412
3.17227
1.09261
0.977706
1.0177
1.13
1.25708
1.38481
1.53209
1.72434
1.97635
2.30536
2.71699
2.82924
0.80443
0.873894
1.03218
1.17471
1.28074
1.38181
1.49965
1.64894
1.84153
2.0894
2.40217
2.55244
2.29772
1.34525
1.33136
1.36967
1.4646
1.54578
1.60041
1.63504
1.65782
1.69215
1.7052
1.68858
2.86968
2.22685
1.596
1.40595
1.38018
1.39539
1.43959
1.47022
1.51113
1.56656
1.56606
1.51716
2.75501
2.50376
2.06574
1.62389
1.42719
1.34164
1.32637
1.3413
1.40588
1.45169
1.41406
1.29201
2.53843
2.43973
2.18753
1.83658
1.56812
1.39863
1.35125
1.38107
1.4002
1.34007
1.20446
0.944241
1.62908
1.50334
1.42009
1.42474
1.55137
1.78489
2.07216
2.41314
2.8159
3.29138
3.7607
3.37476
1.38699
1.22082
1.14784
1.19554
1.33318
1.50551
1.72051
1.99413
2.33268
2.75247
3.22439
3.18181
1.09078
0.977062
1.01716
1.12966
1.25871
1.38796
1.53745
1.73175
1.98521
2.31486
2.72612
2.83764
0.804657
0.873039
1.02943
1.17286
1.28041
1.38343
1.50311
1.65413
1.84807
2.0969
2.40988
2.55972
2.30585
1.35254
1.33943
1.37747
1.47267
1.55341
1.60704
1.6404
1.66196
1.69584
1.7086
1.69147
2.87778
2.23353
1.60153
1.41214
1.38634
1.40184
1.44584
1.47545
1.51554
1.57078
1.56969
1.51968
2.76273
2.51036
2.07009
1.62517
1.43049
1.34479
1.3298
1.34456
1.40922
1.45523
1.41682
1.29289
2.54524
2.44588
2.19202
1.83815
1.56798
1.39868
1.35263
1.38391
1.40446
1.3435
1.20625
0.944227
1.63028
1.50147
1.41758
1.4221
1.54884
1.78295
2.07106
2.41296
2.8164
3.29213
3.76137
3.375
1.38691
1.21971
1.14743
1.19547
1.33325
1.50528
1.72004
1.99374
2.3324
2.7521
3.22354
3.18074
1.09034
0.977429
1.01794
1.13102
1.25992
1.38864
1.53755
1.7315
1.98472
2.31401
2.72468
2.8356
0.804973
0.874219
1.032
1.17536
1.28218
1.38441
1.50339
1.65388
1.84741
2.09577
2.40819
2.55739
2.30919
1.35266
1.33777
1.37651
1.47071
1.55152
1.60567
1.63975
1.66174
1.69563
1.70887
1.69242
2.87629
2.2377
1.60695
1.4142
1.3871
1.40189
1.44552
1.47573
1.51577
1.57123
1.57107
1.5221
2.76072
2.50966
2.07392
1.63243
1.43415
1.34766
1.33178
1.34649
1.41038
1.45703
1.41938
1.29648
2.54273
2.44417
2.19259
1.8416
1.57261
1.40296
1.35542
1.38603
1.40655
1.346
1.2087
0.946522
1.63243
1.5042
1.41666
1.4189
1.54109
1.77257
2.05937
2.40134
2.80654
3.28554
3.75856
3.37359
1.39059
1.22069
1.14523
1.19165
1.32706
1.49787
1.71121
1.98419
2.32348
2.74535
3.22035
3.17889
1.09243
0.976194
1.01535
1.12688
1.25477
1.38366
1.53188
1.72495
1.97788
2.30818
2.72126
2.83429
0.804059
0.872032
1.02808
1.17181
1.27923
1.38133
1.49996
1.64991
1.84311
2.09189
2.40561
2.55662
2.32253
2.19442
1.94186
1.62299
1.45476
1.40878
1.42947
1.39046
1.20195
0.998056
0.82656
0.549271
2.14445
1.96612
1.70526
1.48734
1.41498
1.40141
1.34609
1.17587
0.998945
0.865513
0.721474
0.436217
2.02235
1.82605
1.59386
1.44855
1.39825
1.34628
1.20404
1.03436
0.909271
0.810123
0.674282
0.364043
1.94787
1.75564
1.55473
1.42931
1.35326
1.23203
1.06868
0.936097
0.849714
0.766772
0.631924
0.302851
0.650276
0.995199
1.16543
1.2743
1.36973
1.479
1.60962
1.7635
1.94189
2.14716
2.33315
2.38884
0.584785
0.978129
1.16148
1.27781
1.38237
1.50411
1.64844
1.81111
1.9835
2.15292
2.25553
2.26015
0.471533
0.904565
1.1065
1.23958
1.35943
1.49408
1.64906
1.81724
1.98591
2.12814
2.18772
2.16235
0.372371
0.815252
1.02784
1.17177
1.30219
1.44579
1.60871
1.78311
1.95258
2.07682
2.12144
2.08874
2.31851
2.19058
1.93925
1.62448
1.4541
1.40498
1.42144
1.37838
1.19365
0.99323
0.823332
0.549822
2.14228
1.96532
1.70743
1.48922
1.41315
1.39598
1.33708
1.16814
0.994352
0.861953
0.718527
0.436017
2.02224
1.8283
1.59885
1.45024
1.39581
1.33945
1.19704
1.02973
0.905994
0.806986
0.671475
0.363853
1.94846
1.75893
1.55974
1.43066
1.34983
1.22624
1.06432
0.933361
0.847239
0.764084
0.629481
0.302331
0.64872
0.991275
1.16243
1.27279
1.36956
1.48024
1.61235
1.7677
1.94731
2.15336
2.33946
2.39499
0.583042
0.974294
1.15875
1.27629
1.38196
1.50483
1.65044
1.81445
1.98804
2.15819
2.26096
2.26527
0.470381
0.901472
1.1041
1.23795
1.35864
1.49429
1.6505
1.82008
1.99003
2.13307
2.19275
2.16682
0.371679
0.813197
1.02592
1.17026
1.3013
1.44575
1.60985
1.78567
1.95654
2.08173
2.12659
2.09325
2.3241
2.1954
1.94237
1.62457
1.4541
1.40584
1.4241
1.38357
1.19822
0.996722
0.826541
0.550509
2.14648
1.96808
1.70763
1.48862
1.41389
1.39839
1.34201
1.17337
0.998573
0.865873
0.722264
0.436955
2.02531
1.8294
1.59765
1.4503
1.39788
1.34428
1.20268
1.03448
0.909998
0.810937
0.67526
0.364988
1.95145
1.7599
1.55924
1.43197
1.35403
1.23199
1.06948
0.937312
0.850748
0.767686
0.632924
0.303476
0.649259
0.994513
1.16534
1.27488
1.37078
1.48072
1.61212
1.76685
1.94591
2.15149
2.3371
2.39233
0.583366
0.977145
1.16106
1.27799
1.38295
1.50511
1.64995
1.81316
1.98599
2.15556
2.25802
2.26233
0.470353
0.903345
1.10575
1.2393
1.35947
1.49442
1.64977
1.81838
1.98734
2.12969
2.18911
2.16339
0.371531
0.813972
1.02689
1.1712
1.30189
1.44571
1.60889
1.78359
1.95329
2.07744
2.12202
2.08893
2.32152
2.19341
1.94305
1.62799
1.45673
1.40724
1.42444
1.38388
1.19927
0.99614
0.825007
0.550194
2.14404
1.96694
1.70938
1.49063
1.41447
1.39791
1.34077
1.17226
0.996712
0.863014
0.71943
0.436203
2.02279
1.82855
1.59898
1.4503
1.39631
1.34131
1.19987
1.03173
0.906815
0.807446
0.672167
0.364227
1.94811
1.75817
1.55876
1.42992
1.3499
1.22777
1.06587
0.934001
0.847349
0.764277
0.630016
0.302638
0.647072
0.990699
1.1623
1.27283
1.3694
1.47948
1.61073
1.76513
1.94403
2.14986
2.33627
2.39212
0.581493
0.974126
1.15906
1.27675
1.38232
1.50487
1.64988
1.81311
1.98595
2.15552
2.25771
2.26146
0.469062
0.901301
1.10451
1.23871
1.35955
1.49511
1.65089
1.81972
1.98881
2.13064
2.18916
2.16157
0.370976
0.813002
1.02634
1.17114
1.30252
1.44712
1.61098
1.78613
1.95605
2.07963
2.12294
2.08731
1.89592
1.71852
1.53459
1.39574
1.26938
1.11084
0.960917
0.863526
0.799203
0.722811
0.58962
0.26655
1.83859
1.67839
1.49999
1.33669
1.17203
1.00401
0.877254
0.804227
0.751394
0.677707
0.546421
0.248986
1.758
1.61419
1.43821
1.25684
1.07455
0.914114
0.808954
0.751183
0.704412
0.632865
0.506097
0.226619
1.64968
1.5214
1.35088
1.16435
0.982494
0.837324
0.749187
0.700654
0.657489
0.588592
0.468065
0.208243
1.51853
1.40577
1.24601
1.06666
0.897104
0.769114
0.693538
0.650568
0.610023
0.544522
0.431156
0.188716
1.37382
1.27736
1.133
0.969296
0.817794
0.705915
0.639297
0.599644
0.561278
0.49975
0.393774
0.168802
1.22553
1.14528
1.01947
0.875298
0.743089
0.64501
0.584625
0.546827
0.510245
0.452932
0.354197
0.14719
1.08096
1.01519
0.909153
0.784919
0.670704
0.583924
0.527856
0.490854
0.455479
0.402117
0.31041
0.123246
0.940782
0.887347
0.80061
0.695142
0.596869
0.519459
0.466553
0.42956
0.394606
0.344601
0.259802
0.0965129
0.796439
0.753138
0.685314
0.597972
0.51459
0.445757
0.396105
0.359044
0.323671
0.276415
0.199268
0.0676835
0.620005
0.585367
0.53613
0.474065
0.407053
0.348239
0.303946
0.268053
0.232997
0.189699
0.122335
0.0391851
0.287338
0.276947
0.259814
0.237043
0.211694
0.184731
0.159743
0.138496
0.117596
0.0937321
0.0584443
0.0185437
0.306504
0.731693
0.942419
1.08886
1.22265
1.36889
1.5344
1.71109
1.88054
1.99949
2.04415
2.02069
0.278433
0.657911
0.855933
0.998791
1.1298
1.27263
1.43495
1.60932
1.77681
1.89629
1.94716
1.93967
0.246526
0.58808
0.771402
0.906924
1.03079
1.16546
1.31947
1.4867
1.64905
1.76941
1.82753
1.83489
0.219019
0.524124
0.691505
0.81734
0.931344
1.05472
1.19665
1.35259
1.50609
1.62465
1.68805
1.70612
0.193774
0.465779
0.617469
0.732547
0.835457
0.94613
1.07388
1.21565
1.35708
1.47007
1.53551
1.55982
0.169629
0.412264
0.549299
0.65358
0.745411
0.84343
0.956591
1.0829
1.21018
1.31437
1.37816
1.40488
0.146026
0.361987
0.485935
0.580138
0.661803
0.748295
0.847759
0.958746
1.07115
1.16441
1.22372
1.2499
0.121884
0.312711
0.425354
0.510652
0.583591
0.660225
0.747581
0.844334
0.942202
1.02355
1.07673
1.10042
0.0964939
0.261194
0.364045
0.441702
0.507572
0.576141
0.652988
0.736712
0.820699
0.889672
0.936121
0.956565
0.0695957
0.202821
0.296433
0.367199
0.427152
0.488867
0.556007
0.626945
0.696645
0.752661
0.79204
0.809276
0.0416668
0.128184
0.210434
0.273012
0.326277
0.380492
0.436522
0.4914
0.542244
0.584506
0.615801
0.629666
0.0188729
0.0618112
0.104703
0.137767
0.166085
0.192593
0.217378
0.239393
0.258904
0.273393
0.282742
0.286948
1.89569
1.72066
1.53751
1.39544
1.26565
1.10677
0.958501
0.861854
0.797273
0.720545
0.587485
0.265754
1.83645
1.67796
1.49988
1.33451
1.16839
1.00132
0.87594
0.803105
0.749803
0.675738
0.544613
0.248342
1.75382
1.61106
1.43531
1.2532
1.07113
0.912283
0.808169
0.750315
0.703005
0.631054
0.50441
0.225986
1.64387
1.51616
1.346
1.15982
0.979285
0.835901
0.748584
0.699863
0.65616
0.586838
0.466416
0.207575
1.51176
1.39935
1.2401
1.0618
0.894073
0.76783
0.692931
0.64976
0.608711
0.542763
0.429473
0.188045
1.36665
1.27055
1.12681
0.964457
0.814883
0.7046
0.63858
0.598768
0.559957
0.497963
0.392035
0.168094
1.21836
1.13861
1.01348
0.870674
0.74025
0.643577
0.583748
0.545865
0.508914
0.451141
0.352416
0.146479
1.07403
1.0089
0.903557
0.780543
0.667883
0.582324
0.526794
0.489801
0.454148
0.400401
0.308639
0.122551
0.934323
0.881515
0.795445
0.69101
0.594064
0.517699
0.465307
0.428437
0.393313
0.343021
0.258193
0.0959187
0.790808
0.747851
0.680592
0.594142
0.511847
0.443893
0.394747
0.357877
0.322467
0.275061
0.197947
0.0672434
0.615423
0.581023
0.532173
0.47072
0.404577
0.346439
0.302608
0.266919
0.23199
0.18871
0.121529
0.0388496
0.285118
0.274758
0.257696
0.235086
0.209966
0.183313
0.158599
0.137495
0.116716
0.0929615
0.0577036
0.0182051
0.306074
0.730379
0.940962
1.0876
1.22184
1.36882
1.53546
1.71357
1.88452
2.00474
2.04975
2.02591
0.278146
0.656995
0.854856
0.997814
1.12916
1.27264
1.43602
1.61181
1.78091
1.90193
1.95344
1.94594
0.246308
0.587436
0.770629
0.906214
1.03035
1.16558
1.32057
1.48921
1.65322
1.77539
1.83445
1.84223
0.218892
0.523682
0.690973
0.816857
0.931081
1.05495
1.19777
1.35504
1.51022
1.63074
1.69546
1.71424
0.193656
0.465478
0.617113
0.732241
0.835334
0.946429
1.07497
1.21798
1.36103
1.47605
1.54301
1.5683
0.169544
0.412057
0.549064
0.653401
0.745385
0.843757
0.957604
1.08502
1.21382
1.32
1.38538
1.41327
0.145924
0.361837
0.485777
0.580043
0.661833
0.748617
0.848657
0.960619
1.07439
1.16951
1.23036
1.25781
0.121789
0.312593
0.425238
0.510602
0.583644
0.660516
0.748348
0.845934
0.94501
1.02802
1.08259
1.10756
0.0963999
0.261092
0.363943
0.441665
0.507611
0.576378
0.653613
0.738051
0.823091
0.893528
0.941112
0.962809
0.0695251
0.202727
0.296329
0.36714
0.42715
0.489008
0.556499
0.628002
0.69871
0.755864
0.796164
0.814537
0.0416231
0.128116
0.210319
0.272914
0.326199
0.380453
0.43687
0.492287
0.543907
0.586904
0.618927
0.633735
0.0188528
0.0617698
0.104625
0.137671
0.166028
0.192646
0.21764
0.239852
0.259709
0.274496
0.284138
0.288757
1.89963
1.72299
1.53916
1.39899
1.27125
1.11255
0.962843
0.865069
0.800281
0.723721
0.590527
0.267155
1.84201
1.6825
1.50417
1.34014
1.17483
1.00673
0.879545
0.805752
0.752404
0.678551
0.54721
0.249404
1.76104
1.61782
1.44197
1.26041
1.07793
0.917221
0.811212
0.752559
0.705309
0.633622
0.506774
0.227025
1.65241
1.52465
1.35437
1.16798
0.986106
0.840407
0.751235
0.701839
0.658257
0.589241
0.468642
0.208526
1.52102
1.40884
1.24939
1.0703
0.900668
0.77197
0.695326
0.651564
0.610664
0.545056
0.431629
0.188975
1.37599
1.28028
1.1363
0.972819
0.821114
0.708453
0.64082
0.600468
0.5618
0.500153
0.394135
0.168953
1.22721
1.14793
1.02265
0.878561
0.746055
0.647204
0.585907
0.5475
0.510658
0.453201
0.354429
0.147297
1.08204
1.0174
0.912028
0.787785
0.67325
0.585777
0.528919
0.491394
0.455787
0.402263
0.310499
0.123255
0.941328
0.888987
0.803029
0.697491
0.598987
0.520972
0.467421
0.429979
0.394823
0.344627
0.259747
0.0964669
0.796777
0.754175
0.687077
0.599779
0.516252
0.446946
0.396771
0.359354
0.323791
0.276327
0.199073
0.0675667
0.620093
0.585978
0.537101
0.475255
0.408301
0.349088
0.304392
0.268272
0.233007
0.189518
0.122057
0.039048
0.287244
0.277077
0.260087
0.237379
0.212075
0.185072
0.159885
0.138535
0.117528
0.0935329
0.0581509
0.018411
0.305857
0.730476
0.94141
1.08815
1.22216
1.36857
1.53426
1.71115
1.88073
1.99966
2.04424
2.02042
0.277951
0.656832
0.854965
0.998044
1.12922
1.27219
1.43466
1.60918
1.77678
1.89626
1.94707
1.93932
0.246129
0.587164
0.77053
0.906209
1.03021
1.16499
1.31912
1.48649
1.64895
1.76937
1.82749
1.83475
0.218733
0.523366
0.690751
0.816693
0.930798
1.05428
1.19631
1.35238
1.50602
1.62472
1.68821
1.70631
0.193523
0.465161
0.616835
0.731986
0.834969
0.945731
1.07358
1.21549
1.35708
1.47028
1.5359
1.56035
0.169437
0.411772
0.54878
0.653112
0.744993
0.84309
0.956349
1.0828
1.21026
1.3147
1.37873
1.40569
0.145855
0.361604
0.485523
0.579766
0.66146
0.748026
0.847576
0.95871
1.0713
1.16484
1.22441
1.25089
0.121752
0.31242
0.425044
0.510371
0.583325
0.660026
0.747458
0.844352
0.942397
1.02402
1.07744
1.10147
0.0963851
0.260976
0.363818
0.441508
0.507368
0.576012
0.652911
0.736781
0.82092
0.890158
0.936804
0.957595
0.0695656
0.202655
0.296295
0.367063
0.427013
0.48878
0.55598
0.627028
0.696889
0.75311
0.792648
0.810198
0.0416857
0.128068
0.210375
0.272927
0.326188
0.380421
0.436534
0.491504
0.54247
0.584857
0.616272
0.630392
0.0189036
0.061827
0.104727
0.137767
0.166102
0.192634
0.217459
0.239497
0.25907
0.273597
0.282984
0.287239
1.8949
1.7195
1.53625
1.39462
1.26593
1.10779
0.959059
0.861782
0.797074
0.720613
0.587884
0.26601
1.83572
1.67703
1.49904
1.33422
1.16889
1.0019
0.875925
0.80272
0.749504
0.675762
0.544889
0.24853
1.75349
1.61072
1.4352
1.25356
1.07179
0.912586
0.807894
0.749839
0.702713
0.631089
0.504648
0.226136
1.64409
1.51652
1.34663
1.16071
0.980062
0.836086
0.748238
0.69941
0.655922
0.586911
0.466653
0.207729
1.51249
1.40031
1.2413
1.06304
0.894926
0.767998
0.69262
0.649384
0.608542
0.542882
0.42973
0.188191
1.36776
1.2719
1.12836
0.965888
0.815779
0.70481
0.638354
0.598485
0.559853
0.49812
0.392314
0.168255
1.21967
1.14016
1.01519
0.872158
0.741168
0.643855
0.583626
0.545673
0.508862
0.451315
0.352707
0.146641
1.07539
1.01048
0.90527
0.781997
0.668805
0.582674
0.526776
0.48969
0.454135
0.40056
0.308925
0.122717
0.935618
0.883014
0.797057
0.692375
0.59497
0.518108
0.465387
0.428394
0.393328
0.343152
0.258434
0.0960579
0.791978
0.749174
0.682013
0.595367
0.512703
0.44434
0.394898
0.357902
0.322499
0.275147
0.198117
0.0673346
0.616363
0.582091
0.533262
0.471719
0.405333
0.346879
0.3028
0.267014
0.232025
0.188743
0.121601
0.0389123
0.285497
0.275205
0.258178
0.235549
0.210378
0.183617
0.158769
0.137614
0.116797
0.0929985
0.0577578
0.0182401
0.305872
0.73024
0.941367
1.08851
1.22322
1.37053
1.53713
1.71475
1.88481
2.00322
2.04657
2.02041
0.278026
0.656961
0.855264
0.998703
1.13058
1.27453
1.43809
1.61358
1.78189
1.90122
1.95118
1.94182
0.246296
0.587501
0.771046
0.907057
1.03173
1.16754
1.32289
1.49143
1.65485
1.7756
1.83333
1.83986
0.218939
0.523831
0.691395
0.817637
0.932379
1.05687
1.20019
1.35759
1.51239
1.63184
1.6955
1.71346
0.193751
0.465697
0.617543
0.732956
0.836521
0.948247
1.07739
1.22071
1.36361
1.47789
1.54407
1.56883
0.169662
0.412338
0.549509
0.654063
0.746464
0.845447
0.959957
1.08782
1.21667
1.32238
1.38724
1.41475
0.146063
0.362168
0.486246
0.580673
0.662829
0.750186
0.850909
0.963399
1.0774
1.17226
1.23276
1.25993
0.12192
0.312955
0.425734
0.511221
0.584587
0.661991
0.750498
0.848652
0.948067
1.03098
1.08534
1.11006
0.0965189
0.261444
0.364455
0.442275
0.508534
0.577782
0.65568
0.740665
0.826115
0.896538
0.94403
0.965444
0.0696204
0.20302
0.296819
0.367735
0.428038
0.490353
0.55845
0.630481
0.701549
0.758775
0.799042
0.817062
0.0416976
0.128258
0.210733
0.273432
0.326986
0.381642
0.438597
0.494438
0.546329
0.589442
0.621471
0.635828
0.0189243
0.061928
0.1049
0.138005
0.166564
0.193399
0.218616
0.240979
0.260924
0.275752
0.285369
0.289763
)
;

boundaryField
{
    rotor
    {
        type            kqRWallFunction;
        value           nonuniform List<scalar> 
192
(
0.149527
0.293006
0.618022
0.862805
0.993767
1.0807
1.14159
1.18409
1.21062
1.22401
1.23481
1.22442
1.20254
1.16668
1.10981
1.04386
0.961899
0.874015
0.773358
0.666023
0.546275
0.430175
0.320145
0.2533
0.156368
0.310214
0.630091
0.868214
0.996888
1.08361
1.14365
1.18565
1.21206
1.22586
1.23689
1.22742
1.2054
1.16868
1.11319
1.04544
0.96527
0.875356
0.776339
0.667233
0.548358
0.431037
0.321256
0.253916
0.157373
0.312179
0.632446
0.870252
0.998669
1.0857
1.14678
1.18994
1.21695
1.22997
1.24094
1.23106
1.20887
1.17177
1.11577
1.04774
0.966951
0.876737
0.77719
0.667759
0.548594
0.431144
0.321299
0.254047
0.156268
0.307442
0.627526
0.867442
0.996611
1.08321
1.14385
1.18694
1.2133
1.22738
1.23839
1.22851
1.20663
1.17026
1.11448
1.04701
0.966584
0.876781
0.777492
0.668302
0.549144
0.431611
0.321647
0.25423
0.149527
0.416244
0.590314
0.700604
0.763221
0.789396
0.795149
0.786591
0.754502
0.729906
0.647127
0.717735
0.25423
0.585879
0.829825
1.04606
1.24467
1.44285
1.64843
1.87666
2.09449
2.31422
2.54774
2.77272
0.156368
0.424893
0.597054
0.70757
0.769907
0.795006
0.800076
0.794099
0.763241
0.738905
0.653403
0.721752
0.2533
0.583844
0.827026
1.04267
1.24076
1.43855
1.64363
1.87135
2.08859
2.30753
2.54035
2.76456
0.157373
0.426624
0.599091
0.710839
0.774374
0.798819
0.805373
0.798609
0.768336
0.743593
0.658725
0.727048
0.253916
0.585154
0.828826
1.04487
1.24333
1.4414
1.6469
1.87502
2.09296
2.31277
2.54639
2.77193
0.156268
0.424506
0.598954
0.705524
0.772677
0.790354
0.780582
0.78151
0.754923
0.73069
0.650471
0.720962
0.254047
0.585604
0.829667
1.04606
1.2448
1.44317
1.6488
1.87705
2.09485
2.31454
2.54845
2.7734
)
;
    }
    stator
    {
        type            kqRWallFunction;
        value           nonuniform List<scalar> 
192
(
0.287338
0.276947
0.259814
0.237043
0.211694
0.184731
0.159743
0.138496
0.117596
0.0937321
0.0584443
0.0185437
0.0188729
0.0618112
0.104703
0.137767
0.166085
0.192593
0.217378
0.239393
0.258904
0.273393
0.282742
0.286948
0.285118
0.274758
0.257696
0.235086
0.209966
0.183313
0.158599
0.137495
0.116716
0.0929615
0.0577036
0.0182051
0.0188528
0.0617698
0.104625
0.137671
0.166028
0.192646
0.21764
0.239852
0.259709
0.274496
0.284138
0.288757
0.287244
0.277077
0.260087
0.237379
0.212075
0.185072
0.159885
0.138535
0.117528
0.0935329
0.0581509
0.018411
0.0189036
0.061827
0.104727
0.137767
0.166102
0.192634
0.217459
0.239497
0.25907
0.273597
0.282984
0.287239
0.285497
0.275205
0.258178
0.235549
0.210378
0.183617
0.158769
0.137614
0.116797
0.0929985
0.0577578
0.0182401
0.0189243
0.061928
0.1049
0.138005
0.166564
0.193399
0.218616
0.240979
0.260924
0.275752
0.285369
0.289763
0.306504
0.278433
0.246526
0.219019
0.193774
0.169629
0.146026
0.121884
0.0964939
0.0695957
0.0416668
0.0188729
0.26655
0.248986
0.226619
0.208243
0.188716
0.168802
0.14719
0.123246
0.0965129
0.0676835
0.0391851
0.0185437
0.306074
0.278146
0.246308
0.218892
0.193656
0.169544
0.145924
0.121789
0.0963999
0.0695251
0.0416231
0.0188528
0.265754
0.248342
0.225986
0.207575
0.188045
0.168094
0.146479
0.122551
0.0959187
0.0672434
0.0388496
0.0182051
0.305857
0.277951
0.246129
0.218733
0.193523
0.169437
0.145855
0.121752
0.0963851
0.0695656
0.0416857
0.0189036
0.267155
0.249404
0.227025
0.208526
0.188975
0.168953
0.147297
0.123255
0.0964669
0.0675667
0.039048
0.018411
0.305872
0.278026
0.246296
0.218939
0.193751
0.169662
0.146063
0.12192
0.0965189
0.0696204
0.0416976
0.0189243
0.26601
0.24853
0.226136
0.207729
0.188191
0.168255
0.146641
0.122717
0.0960579
0.0673346
0.0389123
0.0182401
)
;
    }
    front
    {
        type            empty;
    }
    back
    {
        type            empty;
    }
}

