/*--------------------------------*- C++ -*----------------------------------*\
| =========                 |                                                 |
| \\      /  F ield         | OpenFOAM: The Open Source CFD Toolbox           |
|  \\    /   O peration     | Version:  v1912                                 |
|   \\  /    A nd           | Website:  www.openfoam.com                      |
|    \\/     M anipulation  |                                                 |
\*---------------------------------------------------------------------------*/
FoamFile
{
    version     2.0;
    format      ascii;
    class       volScalarField;
    location    "50";
    object      nut;
}
// * * * * * * * * * * * * * * * * * * * * * * * * * * * * * * * * * * * * * //

dimensions      [0 2 -1 0 0 0 0];


internalField   nonuniform List<scalar> 
3072
(
5.97145e-05
0.000138556
0.000208729
0.000255184
0.00027774
0.000291594
0.000301064
0.000307483
0.000312042
0.000315847
0.000316649
0.000316577
0.000108706
0.000339938
0.000375738
0.000542662
0.000739151
0.000952591
0.00120376
0.00146184
0.0017285
0.00198313
0.0022091
0.00239713
0.000146191
0.000636268
0.00083368
0.00120883
0.00159213
0.00198626
0.0023684
0.00271859
0.00303615
0.00331391
0.00355235
0.00374178
0.000174131
0.000852361
0.00124292
0.00175267
0.00224065
0.00269756
0.00310068
0.00345225
0.00375281
0.00401078
0.00423056
0.00441353
0.00019735
0.00100977
0.00155783
0.00213153
0.00266468
0.0031222
0.00351115
0.00383285
0.00409929
0.0043247
0.00451942
0.00468806
0.00021582
0.00109648
0.00176359
0.00239971
0.00295026
0.00339278
0.00375182
0.00402912
0.00424813
0.00443119
0.00459556
0.00474962
0.000232278
0.00116017
0.00190718
0.00255907
0.00309093
0.00351824
0.00384556
0.00408825
0.0042703
0.00441564
0.00454354
0.00467214
0.000246405
0.00117837
0.00195398
0.00260319
0.00313271
0.00354946
0.00385616
0.00407049
0.00421722
0.00432106
0.00440405
0.00448694
0.000256151
0.00111656
0.00192138
0.00257027
0.00310327
0.00351178
0.00380564
0.00400035
0.00411812
0.0041815
0.00421065
0.00422748
0.000266139
0.00101892
0.00180811
0.0024391
0.00297396
0.00338811
0.00368537
0.003871
0.00397045
0.00400279
0.00398184
0.00392667
0.000264656
0.000780425
0.00159924
0.0022255
0.00274462
0.00316208
0.00346204
0.00365392
0.00374823
0.00376627
0.00370547
0.00358825
0.000299757
0.000637152
0.00130655
0.00190924
0.00241861
0.00282128
0.00313084
0.00332107
0.00340793
0.00343317
0.00334496
0.00318868
0.000314015
0.000310045
0.0003037
0.000295441
0.000284763
0.000272259
0.000256852
0.000238761
0.00021631
0.000192329
0.000165754
8.0537e-05
0.00251631
0.00259242
0.0026287
0.00260391
0.00251121
0.00233505
0.00203696
0.00164869
0.00118806
0.000666578
0.000279989
0.000136684
0.00387074
0.00393816
0.00398967
0.00395838
0.00383932
0.00360914
0.0031849
0.00265979
0.00202811
0.00130258
0.000550238
0.000179827
0.00455883
0.00466646
0.00470311
0.00469793
0.00461235
0.00443102
0.00408213
0.00356893
0.00288121
0.00199627
0.000938132
0.000221049
0.00483506
0.00495643
0.00504335
0.00507044
0.00504726
0.00493834
0.00470466
0.00428373
0.00364033
0.00268729
0.00139595
0.000261935
0.00489523
0.00503121
0.00515076
0.00523588
0.00527996
0.00526277
0.00514346
0.00485521
0.0043092
0.00334996
0.00188785
0.000304323
0.00480963
0.0049569
0.00510719
0.00525312
0.00536396
0.00543765
0.00544495
0.00529917
0.0048848
0.00397759
0.00238237
0.000348909
0.00458756
0.00471965
0.00488995
0.00508825
0.00529032
0.00546661
0.00558729
0.0056096
0.00535976
0.00452571
0.00281025
0.000397904
0.00425883
0.00433554
0.00449155
0.00472994
0.00502573
0.005328
0.00559048
0.00575426
0.00569193
0.00501198
0.00322065
0.000447167
0.00387273
0.00385892
0.003958
0.00419857
0.00457679
0.00501432
0.00543382
0.00577844
0.00590252
0.0053565
0.0035498
0.000498146
0.00346846
0.00336998
0.00339271
0.00358393
0.00400705
0.00456661
0.00513214
0.00564475
0.00599985
0.00571872
0.00387235
0.000552072
0.00305992
0.00294512
0.00292002
0.00308643
0.0035136
0.00412174
0.00476597
0.00539311
0.00592949
0.005938
0.00430508
0.000605483
5.91129e-05
0.000141672
0.000211079
0.000256303
0.000278358
0.000292054
0.000301313
0.000307745
0.000312381
0.000316224
0.000317137
0.000317121
0.000109082
0.000347731
0.000376713
0.000546858
0.000743342
0.000961397
0.00120844
0.00146964
0.0017359
0.00199039
0.00221606
0.00240344
0.000146394
0.000642622
0.000841906
0.00121938
0.00160132
0.00199597
0.00237581
0.00272776
0.00304543
0.00332374
0.00356253
0.00375194
0.000174716
0.000859986
0.00125465
0.00176325
0.00224828
0.00270391
0.00310691
0.00346123
0.00376342
0.00402324
0.00424467
0.00442895
0.000198033
0.00101508
0.00156702
0.0021385
0.0026698
0.00312739
0.00351717
0.00384201
0.0041121
0.00434117
0.00453917
0.00471043
0.00021669
0.00110165
0.00177355
0.00240755
0.00295616
0.00339836
0.00375914
0.00404061
0.00426452
0.0044524
0.00462123
0.00477937
0.000232769
0.00116572
0.00191599
0.00256431
0.00309396
0.00352107
0.00385121
0.00409894
0.00428711
0.00443896
0.00457309
0.00470721
0.000246781
0.00118134
0.00195905
0.00260697
0.003134
0.00355043
0.00385966
0.00407893
0.00423217
0.00434323
0.00443354
0.00452347
0.000257006
0.00111764
0.00192331
0.00257146
0.00310209
0.00350943
0.00380474
0.00400332
0.0041268
0.00419706
0.00423393
0.00425901
0.000268259
0.00101836
0.00180813
0.00243817
0.00296987
0.00338165
0.00367821
0.00386575
0.00396886
0.00400641
0.00399243
0.00394554
0.000265101
0.000778798
0.00159656
0.00222133
0.0027367
0.00315057
0.00344911
0.00363988
0.0037348
0.00375534
0.00370059
0.00359076
0.000300544
0.000631518
0.0012953
0.00189811
0.00240545
0.00280452
0.00311107
0.00330187
0.00338421
0.00340908
0.00332639
0.00317794
0.000314353
0.00031049
0.000304122
0.000295817
0.000285192
0.000272587
0.00025728
0.000239033
0.000216675
0.000192515
0.000166003
8.06154e-05
0.00252169
0.0025982
0.00263364
0.00260906
0.00251528
0.00233908
0.00204045
0.00165157
0.00118994
0.000667761
0.00028033
0.000136817
0.0038807
0.00394828
0.0039996
0.00396818
0.0038485
0.00361706
0.00319158
0.00266506
0.00203162
0.00130461
0.000551009
0.000180006
0.00457532
0.00468335
0.00472017
0.00471472
0.00462822
0.00444539
0.00409384
0.0035785
0.00288755
0.00199965
0.000939226
0.000221261
0.00485924
0.00498191
0.00506866
0.00509501
0.00507042
0.00495955
0.00472214
0.00429797
0.00364997
0.00269244
0.00139765
0.000262181
0.00492886
0.00506513
0.00518471
0.0052702
0.00531234
0.00529157
0.0051677
0.00487481
0.00432292
0.00335739
0.00189025
0.000304602
0.0048491
0.004999
0.00514957
0.00529422
0.00540372
0.00547522
0.00547767
0.00532465
0.00490311
0.0039877
0.00238576
0.000349224
0.00463048
0.00476756
0.00494038
0.00513895
0.00533883
0.00551076
0.0056267
0.00564237
0.00538266
0.00453874
0.00281486
0.000398279
0.00429903
0.00438434
0.00454616
0.00478766
0.00508289
0.00538124
0.00563735
0.0057929
0.00572124
0.00502911
0.00322662
0.000447631
0.0039011
0.00390004
0.0040088
0.00425726
0.0046389
0.00507405
0.00548745
0.00582374
0.00593715
0.00537872
0.00355799
0.000498733
0.00347881
0.00339609
0.00343035
0.00363361
0.00406817
0.00462843
0.00518898
0.00569445
0.00603975
0.00574492
0.00388305
0.000552775
0.00305333
0.00295894
0.00294599
0.00312242
0.00356545
0.00417558
0.00481932
0.00544332
0.00597247
0.00596808
0.00431852
0.000606371
5.91671e-05
0.000142073
0.000211434
0.000256591
0.000278696
0.000292591
0.000302027
0.000308485
0.000312941
0.000316683
0.000317606
0.000317548
0.000109253
0.000348355
0.000378141
0.000549109
0.000746608
0.000966246
0.00121394
0.00147474
0.00174079
0.0019963
0.002222
0.0024095
0.000146669
0.000644317
0.000845732
0.00122479
0.00160891
0.00200495
0.0023848
0.00273645
0.0030541
0.00333268
0.00357141
0.00376092
0.000174979
0.000863059
0.00126014
0.00177141
0.00225845
0.00271477
0.00311738
0.00347102
0.00377281
0.00403226
0.00425335
0.00443745
0.000198584
0.00101915
0.00157437
0.00214841
0.00268098
0.00313843
0.00352716
0.00385092
0.00411978
0.00434783
0.00454509
0.00471596
0.000217177
0.00110639
0.00178135
0.00241767
0.00296721
0.00340867
0.00376823
0.0040478
0.00426958
0.00445562
0.00462305
0.00478043
0.000233318
0.00116899
0.00192388
0.00257461
0.00310477
0.00353022
0.00385819
0.00410313
0.00428841
0.00443769
0.00456998
0.00470306
0.000247718
0.00118662
0.0019669
0.00261653
0.00314354
0.0035582
0.0038646
0.00408047
0.00423023
0.00433817
0.00442602
0.00451428
0.000257704
0.0011209
0.00193069
0.00258029
0.00311069
0.00351609
0.00380834
0.00400329
0.00412303
0.00418989
0.00422387
0.00424663
0.000268301
0.0010221
0.0018148
0.00244596
0.00297805
0.00338849
0.0036818
0.00386576
0.00396522
0.00399952
0.00398277
0.00393336
0.000266175
0.000780719
0.00160109
0.00222821
0.00274469
0.00315848
0.00345482
0.00364168
0.00373312
0.00375082
0.00369383
0.00358197
0.000301214
0.000633254
0.00129992
0.00190498
0.00241383
0.00281362
0.00311923
0.00330736
0.00338552
0.0034079
0.00332383
0.00317382
0.000314793
0.000310874
0.00030448
0.000296132
0.000285451
0.000272811
0.000257438
0.000239156
0.000216758
0.000192587
0.000166071
8.06579e-05
0.00252755
0.00260407
0.00263943
0.00261449
0.00252033
0.00234361
0.0020442
0.00165402
0.00119152
0.000668204
0.000280497
0.000136896
0.00388977
0.00395728
0.00400818
0.00397615
0.00385567
0.00362399
0.0031972
0.00266926
0.00203455
0.00130615
0.000551483
0.000180117
0.00458376
0.00469156
0.00472809
0.00472214
0.00463505
0.0044515
0.0040997
0.00358292
0.00289117
0.00200212
0.000940321
0.000221408
0.00486441
0.00498714
0.00507404
0.0051005
0.00507578
0.00496449
0.00472736
0.00430232
0.00365397
0.00269567
0.00139937
0.000262359
0.00493002
0.00506645
0.00518685
0.00527204
0.00531474
0.00529467
0.00517147
0.00487849
0.00432666
0.00336092
0.00189253
0.000304806
0.00484465
0.00499466
0.00514496
0.00529252
0.00540327
0.00547565
0.00547922
0.00532732
0.00490624
0.00399116
0.00238821
0.000349453
0.00462051
0.00475773
0.00493154
0.00513223
0.00533448
0.00550868
0.00562601
0.00564305
0.00538518
0.00454184
0.00281685
0.000398506
0.00428503
0.00436962
0.00453207
0.00477563
0.00507387
0.00537535
0.00563416
0.00579179
0.00572135
0.00503091
0.00322834
0.000447847
0.00388674
0.00388375
0.00399166
0.00424121
0.00462585
0.00506479
0.00548164
0.00582062
0.00593608
0.00537836
0.00355898
0.000498966
0.00346825
0.00338298
0.00341572
0.00361804
0.00405351
0.00461727
0.00518148
0.00568977
0.00603724
0.00574394
0.00388339
0.000553032
0.0030494
0.00295163
0.00293791
0.00311195
0.00355407
0.00416635
0.00481212
0.00543797
0.00596884
0.00596594
0.0043182
0.000606522
5.91914e-05
0.000140845
0.000210286
0.000255829
0.000278106
0.00029201
0.000301497
0.00030792
0.000312505
0.000316372
0.000317205
0.000317162
0.000109035
0.000347227
0.000375206
0.0005454
0.000741247
0.000959579
0.00120687
0.00146636
0.00173242
0.00198655
0.00221237
0.00240014
0.000146645
0.00064092
0.000838485
0.00121534
0.00159737
0.00199283
0.00237249
0.00272323
0.00304063
0.00331851
0.00355689
0.00374667
0.000174577
0.000857616
0.00125049
0.00175871
0.00224453
0.00270089
0.00310401
0.00345576
0.00375767
0.00401654
0.00423715
0.00442092
0.000198008
0.00101284
0.00156404
0.00213518
0.00266668
0.00312442
0.00351377
0.00383649
0.00410495
0.00433224
0.00452864
0.00469863
0.000216023
0.00110032
0.00177017
0.00240364
0.00295295
0.00339462
0.00375503
0.00403473
0.00425639
0.00444168
0.00460793
0.0047639
0.000230983
0.00116747
0.00191348
0.00256108
0.00309141
0.00351737
0.00384649
0.00409222
0.00427776
0.00442677
0.00455813
0.00468952
0.000245335
0.00118468
0.00195823
0.00260425
0.00313118
0.00354669
0.00385471
0.00407208
0.00422288
0.00433126
0.00441878
0.00450575
0.000255641
0.00112091
0.00192337
0.00256876
0.00309907
0.00350558
0.00379986
0.00399693
0.00411853
0.0041868
0.00422149
0.00424397
0.000264717
0.00102021
0.0018074
0.00243589
0.00296633
0.00337791
0.00367339
0.00386017
0.00396223
0.00399885
0.00398389
0.00393547
0.000265325
0.000780342
0.00159685
0.00221943
0.00273372
0.00314707
0.00344566
0.00363541
0.00373003
0.00375069
0.00369648
0.00358574
0.00029982
0.000633555
0.00129707
0.00189752
0.00240347
0.00280244
0.00310909
0.0033005
0.00338159
0.00340694
0.00332643
0.00317738
0.000314485
0.000310613
0.000304241
0.000295977
0.000285347
0.000272765
0.000257443
0.0002392
0.000216814
0.000192639
0.00016611
8.0666e-05
0.0025192
0.00259579
0.00263168
0.00260752
0.00251429
0.00233849
0.00204041
0.00165186
0.00119041
0.000668145
0.000280507
0.000136901
0.00387621
0.0039439
0.00399541
0.00396443
0.0038454
0.00361477
0.00319034
0.00266464
0.00203183
0.00130502
0.000551275
0.000180108
0.0045669
0.00467509
0.00471235
0.00470762
0.00462181
0.00444011
0.00409013
0.00357627
0.00288671
0.00199971
0.000939521
0.000221377
0.00484619
0.0049686
0.00505638
0.00508569
0.00505963
0.00495007
0.00471494
0.00429308
0.00364744
0.00269177
0.00139786
0.000262304
0.004912
0.00504719
0.00516615
0.00525228
0.00529504
0.00527698
0.00515622
0.00486658
0.00431806
0.00335557
0.00189028
0.000304727
0.00482897
0.00497662
0.00512471
0.00527074
0.00538159
0.00545476
0.00546102
0.00531286
0.00489538
0.00398419
0.00238519
0.000349351
0.00460965
0.00474357
0.00491364
0.00511107
0.00531141
0.00548563
0.00560535
0.00562657
0.00537168
0.00453299
0.00281326
0.000398395
0.00428055
0.00436143
0.00451863
0.00475644
0.00505048
0.00535059
0.00561099
0.0057724
0.00570636
0.00502116
0.00322425
0.00044773
0.00388811
0.00388205
0.00398406
0.00422538
0.00460275
0.00503838
0.00545584
0.0057984
0.00591975
0.00536878
0.00355452
0.000498846
0.00347237
0.00338551
0.00341244
0.00360596
0.0040306
0.00458928
0.0051535
0.00566502
0.00601846
0.00573353
0.00387968
0.000552871
0.00305229
0.00295517
0.00293287
0.00310165
0.00353137
0.00413874
0.00478341
0.00541146
0.00594796
0.00595409
0.00431463
0.000606379
0.00116762
0.000731065
0.00106805
0.00145092
0.00192842
0.00235317
0.00266371
0.00287423
0.00296388
0.00300461
0.00290528
0.00280942
0.00239002
0.00166431
0.00116087
0.00122393
0.00149526
0.001797
0.00211907
0.00234042
0.00247578
0.00254156
0.00250454
0.00242988
0.00341145
0.00261206
0.00196103
0.00148835
0.0014277
0.00151426
0.00171072
0.00190094
0.00207247
0.00218414
0.00218007
0.00213525
0.00416091
0.00336293
0.00261296
0.00197491
0.00168736
0.00157582
0.00165292
0.00179978
0.00194463
0.00201792
0.00216174
0.00204061
0.00268617
0.00250828
0.00255805
0.00278223
0.00321998
0.00385484
0.00450653
0.00513806
0.00574287
0.00609875
0.00522217
0.00176874
0.00231628
0.00226007
0.00239897
0.0027967
0.00337276
0.00392206
0.00446823
0.00501815
0.00557355
0.00605738
0.0059371
0.0032059
0.002114
0.00218118
0.00257659
0.00314786
0.00372933
0.00421211
0.00464646
0.00508195
0.00554223
0.00598617
0.00632103
0.00443962
0.00187611
0.00222479
0.00300205
0.00369785
0.00417562
0.0045414
0.00488401
0.00523662
0.00560657
0.00594691
0.0062481
0.00521287
0.00116288
0.00072667
0.00106073
0.00143943
0.00190941
0.00232924
0.00263563
0.00284703
0.00292802
0.00297015
0.00287891
0.0027876
0.00238721
0.00165889
0.0011574
0.00121727
0.00148069
0.0017748
0.00208561
0.00230584
0.00243132
0.00250717
0.00247606
0.00240996
0.00340536
0.0026086
0.00196133
0.00149436
0.00142293
0.00150585
0.00169018
0.00187999
0.00203652
0.00215684
0.00215924
0.00212947
0.00415419
0.00336002
0.00261367
0.0019823
0.00169679
0.00157971
0.00164509
0.00178626
0.00192493
0.00200598
0.00215712
0.00204543
0.00267688
0.00251296
0.00257951
0.00280768
0.00325805
0.00389691
0.00455122
0.00518364
0.00578591
0.00613217
0.00524129
0.00177413
0.00231634
0.00225983
0.00241189
0.00281396
0.00339652
0.00394887
0.00450127
0.00505578
0.00561256
0.00609224
0.00596061
0.00321806
0.00211619
0.00218335
0.00258558
0.00316053
0.00374842
0.004232
0.00467072
0.00511094
0.00557451
0.00601829
0.00634629
0.00445578
0.0018843
0.00223404
0.00300441
0.00370361
0.0041847
0.00455521
0.00490189
0.00525817
0.00563109
0.00597255
0.00627023
0.00522912
0.00116652
0.000728905
0.00106377
0.00144499
0.00191836
0.0023399
0.00264586
0.00285544
0.00293269
0.00297239
0.00287919
0.00278827
0.0023931
0.00166235
0.00116014
0.00122244
0.001488
0.0017849
0.00209693
0.00231509
0.00243783
0.00251128
0.00247915
0.00241271
0.00341568
0.00261322
0.00196214
0.001492
0.00142588
0.00150956
0.00169581
0.00188509
0.00204119
0.00216136
0.00216356
0.00213565
0.00416562
0.00336615
0.0026152
0.00197923
0.00169244
0.00157705
0.0016466
0.00179084
0.0019324
0.00201285
0.00216462
0.00205399
0.00267586
0.00251154
0.00257911
0.00280534
0.00325421
0.0038918
0.00454594
0.00517875
0.00578168
0.00612901
0.00523903
0.00177252
0.00231905
0.00226649
0.00241931
0.00281734
0.00339824
0.00394773
0.00449828
0.00505199
0.0056085
0.00608833
0.00595689
0.00321528
0.00212237
0.00219133
0.00258746
0.00316256
0.00374925
0.00423167
0.00466919
0.00510857
0.00557143
0.00601469
0.00634255
0.00445175
0.00188588
0.00223263
0.00300665
0.00370623
0.00418631
0.00455574
0.00490166
0.00525744
0.00562964
0.00597033
0.0062679
0.00522548
0.00116807
0.000728518
0.00106071
0.00144126
0.00191015
0.00232996
0.00263666
0.00284944
0.00292903
0.00297246
0.00288236
0.00279046
0.00239058
0.0016678
0.0011659
0.00122232
0.00148474
0.00177959
0.00209057
0.00231218
0.00243573
0.00251318
0.0024814
0.00241433
0.00341436
0.00261369
0.00196832
0.00150299
0.00142962
0.00151192
0.00169624
0.00188722
0.0020428
0.00216327
0.00216446
0.00213117
0.0041641
0.00336735
0.00262037
0.00198754
0.00170069
0.00158463
0.00165115
0.0017947
0.00193463
0.00201231
0.00215564
0.00204412
0.00267835
0.00250987
0.00256753
0.00279373
0.0032308
0.00386523
0.00451887
0.00515289
0.0057596
0.00611569
0.0052346
0.0017711
0.00231734
0.00225507
0.00240338
0.00280385
0.0033778
0.00392776
0.0044765
0.00502983
0.00558817
0.00607354
0.00595206
0.00321207
0.00211438
0.00217701
0.00257793
0.00314852
0.00373113
0.00421681
0.00465386
0.00509221
0.00555533
0.00600133
0.00633579
0.00444825
0.00187867
0.00222682
0.00299562
0.00369599
0.00417811
0.00454668
0.00489164
0.00524632
0.00561839
0.00596019
0.00626013
0.00522128
0.00380638
0.0031926
0.00250519
0.00187649
0.00171402
0.00177495
0.00196386
0.00219986
0.00243226
0.0025006
0.00237582
0.00136482
0.00359085
0.00295166
0.00230136
0.00190547
0.00189669
0.00203402
0.00225176
0.00251398
0.00283465
0.00298514
0.00258189
0.000990644
0.00348554
0.00284873
0.00229521
0.00205607
0.00210056
0.00227635
0.00249068
0.00284461
0.00323042
0.00329808
0.00260741
0.000695038
0.00346966
0.00288095
0.00242003
0.00224245
0.0022974
0.00243767
0.00269732
0.00311429
0.0034679
0.00339978
0.00248589
0.000410538
0.00152535
0.00296991
0.00387347
0.00439388
0.00470684
0.00494719
0.00515656
0.00538377
0.00559988
0.00573391
0.00551771
0.00464733
0.00129131
0.00320714
0.00425032
0.00471379
0.00491959
0.00507386
0.00523071
0.00538452
0.00549307
0.00546156
0.00502165
0.00431008
0.000861825
0.00311386
0.00428664
0.00477362
0.00496487
0.00507963
0.00519945
0.00530779
0.00535688
0.00522165
0.0047231
0.00414505
0.000505259
0.00293523
0.00420422
0.00471254
0.00490391
0.00500069
0.00509421
0.00518153
0.00520779
0.00500544
0.00452671
0.00407791
0.00380549
0.00319451
0.00251133
0.00189043
0.00172103
0.00177841
0.00196491
0.00219722
0.00242911
0.00249774
0.00237168
0.00137061
0.00359685
0.00296162
0.00231892
0.00192129
0.00190566
0.0020439
0.002262
0.00252101
0.00283841
0.00298358
0.00257743
0.000993879
0.00349812
0.0028671
0.0023208
0.00207461
0.00211532
0.00229029
0.0025065
0.00285771
0.0032366
0.00329731
0.00260356
0.00069755
0.00348679
0.00290483
0.00244938
0.00226614
0.00231669
0.00245699
0.00271767
0.00313
0.00347502
0.00340011
0.00248311
0.000411237
0.00152863
0.0029735
0.00387503
0.00439766
0.00471323
0.00495644
0.00516888
0.00539909
0.00561748
0.005752
0.00553315
0.00465947
0.00129189
0.00320538
0.00424996
0.00471603
0.00492401
0.00508007
0.00523913
0.00539521
0.00550575
0.00547455
0.00503294
0.00431798
0.000862537
0.0031117
0.00428553
0.00477434
0.00496702
0.00508303
0.00520467
0.00531523
0.00536644
0.00523149
0.00473124
0.00414999
0.000504786
0.00293268
0.00420272
0.00471227
0.00490445
0.00500208
0.00509716
0.00518672
0.00521538
0.00501386
0.00453371
0.00408151
0.00381257
0.00319782
0.00251019
0.00188414
0.00171718
0.00177658
0.00196558
0.00220164
0.00243698
0.00250785
0.00238284
0.00137034
0.00360005
0.00296043
0.0023119
0.00191405
0.00190222
0.00204106
0.00226193
0.00252448
0.0028449
0.00299313
0.00258662
0.000992182
0.0034983
0.00286212
0.00231045
0.00206785
0.00211152
0.00228895
0.00250598
0.00285863
0.00324037
0.00330407
0.00261027
0.000696896
0.00348575
0.00289864
0.00243931
0.00225946
0.00231425
0.00245516
0.00271481
0.00312754
0.00347573
0.00340413
0.00248781
0.000410807
0.00152491
0.0029692
0.00387575
0.00439988
0.00471521
0.00495861
0.00517027
0.00539984
0.00561713
0.00575078
0.00553113
0.00465779
0.00128849
0.00320566
0.00425192
0.00471901
0.00492724
0.0050831
0.00524146
0.00539672
0.00550561
0.00547332
0.00503157
0.0043178
0.000859886
0.00311237
0.0042875
0.00477732
0.00497067
0.00508669
0.00520732
0.00531696
0.00536616
0.00523034
0.00473031
0.00415032
0.00050454
0.00293397
0.00420442
0.00471498
0.00490814
0.00500602
0.00510019
0.00518818
0.0052144
0.00501067
0.00453134
0.00408121
0.00381246
0.00319927
0.00251719
0.00189598
0.00172292
0.0017802
0.00196638
0.0021981
0.00242977
0.0024957
0.00236977
0.00136984
0.00360164
0.00296491
0.0023221
0.00192327
0.00190585
0.00204326
0.00225972
0.00251655
0.00283207
0.00297859
0.00257643
0.00099341
0.00350093
0.00286821
0.00232084
0.00207409
0.00211325
0.00228703
0.00250071
0.00284901
0.00322827
0.00329275
0.00260318
0.000697988
0.00348784
0.00290403
0.00244714
0.00226313
0.00231194
0.00245146
0.0027092
0.00311974
0.00346686
0.00339604
0.00248251
0.000411357
0.00152186
0.00296669
0.00386932
0.00439426
0.00471182
0.00495469
0.00516567
0.0053937
0.00561008
0.00574338
0.00552469
0.00465086
0.00128599
0.00320166
0.00424813
0.00471571
0.00492522
0.00508221
0.00524042
0.00539459
0.00550222
0.00546794
0.00502363
0.00430538
0.000858389
0.0031093
0.00428525
0.00477619
0.00497104
0.00508859
0.00521001
0.00531824
0.0053657
0.0052249
0.00472123
0.00413195
0.000503263
0.00293167
0.00420342
0.00471529
0.00491016
0.00500994
0.00510527
0.00519251
0.00521678
0.00500765
0.00452282
0.00405998
0.00351367
0.00299129
0.00259562
0.00242884
0.00244127
0.0025686
0.00286941
0.00329971
0.00357915
0.00339996
0.00236633
0.000269607
0.00357048
0.00311564
0.00276277
0.00258193
0.00255227
0.00267435
0.0029953
0.00339878
0.00359465
0.00333867
0.00230422
0.000269546
0.00360268
0.00320968
0.00288676
0.00269016
0.00263158
0.00274995
0.00306605
0.00341744
0.00353298
0.00322519
0.0022318
0.000265468
0.00359301
0.00325554
0.00295649
0.00275279
0.00267896
0.0027891
0.0030769
0.00336144
0.0034038
0.00306235
0.00213538
0.000262655
0.00354054
0.00325502
0.00297477
0.00277447
0.00269327
0.00278495
0.00302368
0.00323324
0.00321088
0.0028501
0.00200977
0.000257686
0.00345095
0.00321407
0.00295009
0.00275829
0.002669
0.00272746
0.00290002
0.00303152
0.00295415
0.00258695
0.00184646
0.000250942
0.00332609
0.00312917
0.00288338
0.00269688
0.00259125
0.00260088
0.0026961
0.0027514
0.00263081
0.00227094
0.00163624
0.000240892
0.00314221
0.0029756
0.00275231
0.00256349
0.00243169
0.00238234
0.0023985
0.00238523
0.00223646
0.0019002
0.00137077
0.000226281
0.00283561
0.00269336
0.00250071
0.002306
0.00214684
0.00204058
0.00198267
0.00191425
0.00176087
0.00147172
0.0010483
0.000204984
0.00228874
0.00217256
0.00202713
0.00184155
0.00167332
0.00153507
0.00143874
0.00134715
0.00120812
0.000981441
0.000690967
0.000175282
0.00134097
0.00126808
0.00118325
0.00107691
0.000949871
0.000830921
0.000746333
0.0006701
0.000580804
0.000457408
0.000293088
0.000135729
0.000152208
0.000149451
0.000144651
0.000137925
0.000129785
0.000120333
0.000110703
0.000102727
9.39878e-05
8.33031e-05
6.51427e-05
3.66126e-05
0.000287873
0.00274067
0.00406881
0.00458919
0.00478342
0.00486896
0.00494241
0.00500711
0.00501064
0.00479835
0.00439756
0.00405432
0.00028433
0.00261954
0.00390669
0.00442733
0.00462564
0.00470399
0.00476178
0.00481176
0.00480901
0.00461824
0.00429285
0.00403412
0.00027681
0.00251081
0.00372094
0.00423543
0.00444056
0.00451684
0.00456342
0.00460243
0.00459888
0.00444032
0.00418176
0.00398793
0.000269584
0.00238541
0.00350787
0.0040137
0.00422996
0.00431151
0.00435347
0.00438573
0.00438403
0.0042579
0.00405528
0.00390756
0.000261442
0.00224029
0.00326057
0.0037561
0.00398838
0.0040845
0.00413142
0.00416358
0.00416671
0.00406911
0.00391251
0.00379612
0.000251936
0.00206543
0.00296853
0.00345153
0.00370335
0.0038236
0.00388746
0.00392943
0.00394307
0.00387173
0.00375257
0.00365781
0.000240488
0.00184716
0.00261974
0.00308545
0.00335603
0.0035068
0.00359923
0.00366303
0.00369611
0.00365238
0.003567
0.00348924
0.00022576
0.00156824
0.0022038
0.00264193
0.00292236
0.00310219
0.00322926
0.00332486
0.00338726
0.00337566
0.00332567
0.00326661
0.000206102
0.0012128
0.00170199
0.00208778
0.00236229
0.00256741
0.00272525
0.00285274
0.00294866
0.00297277
0.00296238
0.00292822
0.00017944
0.000795286
0.00114218
0.00144391
0.00167222
0.00186408
0.00202469
0.00216275
0.00227708
0.00233202
0.00235981
0.00235649
0.00014212
0.000335941
0.000533764
0.000702566
0.000840574
0.000972508
0.00108967
0.0011857
0.00126398
0.00132163
0.0013649
0.00137908
3.81434e-05
6.89296e-05
9.02179e-05
0.000103875
0.000114464
0.000123668
0.000131751
0.000138432
0.000144135
0.00014822
0.00015085
0.000151981
0.0035322
0.00301674
0.00262539
0.00245466
0.00246405
0.00259211
0.00289241
0.00331604
0.00358651
0.00340111
0.00236397
0.000269105
0.0035876
0.00313937
0.00279025
0.00260756
0.00257699
0.00270028
0.00301919
0.00341471
0.00360191
0.00334049
0.00230245
0.000269123
0.00361683
0.00322997
0.00291067
0.00271431
0.00265681
0.00277664
0.00308951
0.00343241
0.00353996
0.00322754
0.00223098
0.000265025
0.00360362
0.00327184
0.00297661
0.00277484
0.00270352
0.00281511
0.00309894
0.00337509
0.00341034
0.00306504
0.00213538
0.000262169
0.00354766
0.00326735
0.0029914
0.00279411
0.00271612
0.002809
0.00304351
0.00324533
0.00321686
0.00285288
0.00201053
0.000257159
0.00345501
0.00322256
0.00296346
0.00277508
0.00268905
0.0027484
0.00291702
0.00304184
0.00295947
0.00258954
0.00184789
0.000250351
0.00332566
0.00313381
0.00289331
0.0027101
0.0026074
0.00261774
0.00270978
0.00275981
0.00263538
0.00227318
0.0016383
0.000240267
0.00313787
0.00297647
0.0027583
0.00257233
0.00244302
0.00239447
0.00240853
0.00239165
0.00224014
0.00190218
0.00137331
0.000225651
0.00282919
0.00269104
0.00250242
0.00231007
0.00215298
0.0020477
0.00198906
0.00191898
0.00176389
0.00147338
0.00105084
0.000204537
0.00228354
0.00216797
0.00202507
0.00184143
0.0016751
0.00153805
0.00144197
0.00134983
0.00120999
0.000982586
0.000693055
0.000175039
0.00133719
0.00126434
0.00118022
0.00107481
0.000949212
0.000831183
0.000747169
0.000671019
0.000581745
0.000458094
0.000294461
0.000135544
0.000151618
0.000148848
0.000144039
0.000137325
0.000129211
0.000119864
0.000110276
0.000102361
9.35799e-05
8.29671e-05
6.47272e-05
3.62342e-05
0.000287671
0.00273841
0.00406725
0.00458835
0.00478292
0.00486898
0.0049438
0.00501075
0.00501688
0.00480627
0.0044037
0.0040579
0.000284146
0.00261765
0.00390524
0.0044262
0.00462451
0.00470311
0.00476208
0.00481429
0.00481435
0.00462618
0.00429901
0.00403858
0.000276675
0.00250931
0.00371966
0.00423418
0.00443906
0.00451536
0.00456291
0.00460405
0.00460339
0.00444822
0.00418823
0.00399361
0.000269462
0.0023842
0.00350674
0.0040124
0.00422824
0.00430961
0.00435231
0.00438652
0.00438761
0.00426534
0.00406213
0.00391418
0.000261328
0.00223933
0.00325953
0.00375476
0.00398651
0.0040823
0.00412971
0.00416355
0.0041693
0.00407582
0.00391918
0.00380317
0.000251817
0.0020646
0.00296751
0.00345011
0.00370137
0.00382119
0.00388532
0.00392867
0.00394466
0.00387743
0.00375856
0.00366467
0.000240363
0.00184642
0.00261868
0.00308396
0.00335398
0.00350429
0.00359683
0.00366173
0.00369686
0.00365697
0.00357194
0.00349544
0.000225636
0.00156757
0.00220274
0.00264043
0.00292033
0.00309974
0.00322684
0.00332333
0.00338755
0.00337938
0.00332955
0.00327201
0.000205999
0.00121228
0.00170109
0.0020864
0.00236037
0.0025651
0.00272309
0.00285133
0.00294904
0.00297609
0.00296549
0.00293318
0.000179351
0.000794989
0.00114151
0.00144285
0.00167071
0.00186212
0.00202311
0.00216167
0.00227818
0.00233506
0.00236278
0.00236131
0.000142051
0.000335835
0.000533433
0.00070203
0.000839734
0.000971024
0.00108892
0.00118577
0.00126524
0.00132355
0.00136728
0.00138271
3.80818e-05
6.88813e-05
9.01746e-05
0.000103815
0.000114434
0.000123681
0.000131834
0.000138573
0.000144369
0.000148527
0.000151226
0.000152461
0.00353195
0.00301202
0.00261796
0.0024502
0.00246193
0.00258864
0.00288627
0.00331031
0.00358461
0.00340295
0.00236768
0.000269858
0.00358949
0.00313776
0.00278657
0.0026054
0.0025748
0.0026945
0.00300971
0.00340629
0.003598
0.00334054
0.00230527
0.000269722
0.00362118
0.00323179
0.00291067
0.00271408
0.00265412
0.0027684
0.00307728
0.00342212
0.00353466
0.00322614
0.00223248
0.000265663
0.00360999
0.00327648
0.00297944
0.00277584
0.00269999
0.00280479
0.00308491
0.00336379
0.00340423
0.00306258
0.00213577
0.000262787
0.00355507
0.00327378
0.00299587
0.00279557
0.00271173
0.00279745
0.00302886
0.00323387
0.00321048
0.00284979
0.00200988
0.00025782
0.00346238
0.00322976
0.00296858
0.00277656
0.00268427
0.00273685
0.00290301
0.00303102
0.00295331
0.00258619
0.00184635
0.000251009
0.00333215
0.00314088
0.00289873
0.00271173
0.00260317
0.00260761
0.00269762
0.00275032
0.00262984
0.00226988
0.00163597
0.000240945
0.00314345
0.00298325
0.00276406
0.00257474
0.00244053
0.00238707
0.00239925
0.00238405
0.00223552
0.0018991
0.00137043
0.000226256
0.00283457
0.00269774
0.0025088
0.00231391
0.00215315
0.00204396
0.0019833
0.00191345
0.00176024
0.00147072
0.00104796
0.000204915
0.00228957
0.00217442
0.00203173
0.00184661
0.00167766
0.00153754
0.00143934
0.00134675
0.00120767
0.000980524
0.000690658
0.00017512
0.00134163
0.00126912
0.00118486
0.00107935
0.000952519
0.000832441
0.000746801
0.000670233
0.000580649
0.000456884
0.000292753
0.000135448
0.000152191
0.00014949
0.000144726
0.000138023
0.000129904
0.00012047
0.000110736
0.000102724