/*--------------------------------*- C++ -*----------------------------------*\
| =========                 |                                                 |
| \\      /  F ield         | OpenFOAM: The Open Source CFD Toolbox           |
|  \\    /   O peration     | Version:  v1912                                 |
|   \\  /    A nd           | Website:  www.openfoam.com                      |
|    \\/     M anipulation  |                                                 |
\*---------------------------------------------------------------------------*/
FoamFile
{
    version     2.0;
    format      ascii;
    class       volScalarField;
    location    "50";
    object      p;
}
// * * * * * * * * * * * * * * * * * * * * * * * * * * * * * * * * * * * * * //

dimensions      [0 2 -2 0 0 0 0];


internalField   nonuniform List<scalar> 
3072
(
-0.0134978
-0.208717
-0.135674
-0.314886
-1.2939
-2.55958
-3.92564
-5.0951
-5.9434
-6.36926
-6.36673
-5.94213
1.6936
1.32502
1.93609
2.26535
2.18535
1.81917
1.33585
0.890467
0.552069
0.400732
0.476562
0.799572
2.95684
2.87421
2.92796
2.85553
2.64402
2.35524
2.03817
1.76459
1.58945
1.56891
1.74195
2.11979
2.73364
3.40494
3.63587
3.71869
3.71293
3.65959
3.58189
3.51769
3.51069
3.59611
3.81048
4.18736
2.77541
3.91591
4.34588
4.64683
4.78997
4.84241
4.83355
4.8038
4.82121
4.93535
5.16583
5.54493
3.24962
4.77495
5.24283
5.64348
5.84846
5.94016
5.95174
5.93226
5.94469
6.05049
6.27916
6.66042
4.15489
5.83239
6.35437
6.79023
6.98433
7.05053
7.02978
6.97655
6.95207
7.00839
7.1949
7.55613
5.08073
7.27916
7.68358
8.07403
8.19841
8.18542
8.08543
7.95879
7.86034
7.84535
7.97049
8.30089
6.67413
9.10202
9.29779
9.51202
9.48693
9.34427
9.13358
8.90908
8.71719
8.61444
8.66182
8.94953
8.99867
11.249
11.0308
10.9827
10.7888
10.5026
10.1755
9.85022
9.56077
9.3664
9.33035
9.5728
11.8304
13.5719
12.8655
12.4289
12.0503
11.6326
11.2091
10.8035
10.4318
10.163
10.0584
10.2599
14.0528
15.4109
14.388
13.7256
13.2051
12.7053
12.2338
11.7905
11.3665
11.0448
10.8683
11.0021
-5.13284
-3.98734
-2.57189
-0.967213
0.741284
2.46931
4.12366
5.59844
6.81401
7.75617
8.16896
7.94394
1.35491
2.10402
3.00225
3.99974
5.03935
6.05703
6.97444
7.71999
8.29018
8.81397
8.85977
8.06507
2.69284
3.43207
4.28643
5.19943
6.1153
6.98179
7.74097
8.32553
8.69106
8.93345
8.841
7.6689
4.72345
5.39341
6.14947
6.93485
7.69213
8.36649
8.91493
9.29707
9.4748
9.46522
9.23126
7.74116
6.07811
6.73758
7.47565
8.22952
8.93684
9.54519
10.0192
10.3462
10.4922
10.4368
10.1434
8.62406
7.20368
7.88151
8.63942
9.41201
10.1294
10.74
11.2155
11.5493
11.7229
11.7444
11.5821
10.2497
8.11108
8.82271
9.62797
10.4542
11.2241
11.8833
12.4079
12.8012
13.0775
13.261
13.3876
12.4965
8.86814
9.62442
10.4894
11.3876
12.2297
12.9592
13.559
14.0416
14.4585
14.8671
15.4053
15.205
9.53008
10.3321
11.2517
12.22
13.1278
13.9161
14.5844
15.1578
15.7138
16.3583
17.4394
18.1683
10.1611
10.9849
11.9268
12.9386
13.8794
14.6908
15.394
16.0275
16.692
17.5464
19.244
21.024
10.8208
11.5934
12.5035
13.4958
14.4017
15.193
15.8933
16.543
17.2405
18.1851
20.4315
22.8246
11.4772
12.1304
12.9557
13.8371
14.6512
15.3739
16.0151
16.6318
17.2856
18.1528
20.3828
23.3131
0.12106
-0.0796412
-0.021699
-0.250669
-1.26193
-2.54483
-3.92251
-5.09606
-5.93891
-6.36417
-6.35877
-5.93363
1.85194
1.47812
2.08848
2.37575
2.26612
1.87591
1.3842
0.929704
0.585167
0.429429
0.503411
0.824331
3.05283
2.96595
3.02066
2.92696
2.70707
2.40548
2.08231
1.80069
1.62098
1.59652
1.76721
2.14271
2.77855
3.44965
3.68369
3.76418
3.75936
3.70217
3.62149
3.5527
3.54234
3.62464
3.8373
4.21138
2.80205
3.95214
4.38549
4.68482
4.82699
4.87772
4.86629
4.83519
4.85041
4.96433
5.19091
5.56853
3.26612
4.803
5.27401
5.6734
5.87837
5.96827
5.98101
5.95937
5.9751
6.07867
6.30691
6.6824
4.1686
5.85603
6.37784
6.8141
7.00711
7.07448
7.05415
7.00373
6.98033
7.03852
7.22245
7.58034
5.09433
7.3007
7.70176
8.09171
8.21623
8.20511
8.10819
7.98534
7.89021
7.87739
8.00182
8.32767
6.68763
9.1194
9.31178
9.52486
9.50074
9.36112
9.15561
8.93662
8.7499
8.65063
8.6984
8.98092
9.00644
11.2614
11.0393
10.991
10.7991
10.5173
10.1971
9.87937
9.59699
9.4075
9.37307
9.60947
11.842
13.5826
12.8731
12.4331
12.0581
11.6458
11.2301
10.8339
10.4708
10.2083
10.106
10.3012
14.0805
15.4217
14.3927
13.7281
13.213
12.718
12.254
11.82
11.405
11.0905
10.9177
11.0462
-5.12344
-3.97794
-2.56274
-0.958433
0.749722
2.47765
4.13226
5.60743
6.82385
7.76688
8.17972
7.9541
1.37811
2.12449
3.02079
4.01575
5.05377
6.06933
6.98554
7.73005
8.29971
8.82329
8.86859
8.07312
2.7137
3.4501
4.30168
5.21189
6.12562
6.99045
7.74849
8.33236
8.69743
8.93932
8.84613
7.67314
4.74451
5.4106
6.16302
6.94487
7.69954
8.37203
8.91949
9.30115
9.47836
9.46787
9.23325
7.74165
6.09649
6.75206
7.48472
8.23479
8.93917
9.54594
10.0198
10.347
10.4932
10.4368
10.1436
8.62309
7.22195
7.89245
8.64484
9.41218
10.1263
10.7361
11.2118
11.5468
11.7209
11.7444
11.5824
10.2499
8.12801
8.83203
9.62931
10.4496
11.2161
11.8745
12.4006
12.7962
13.0761
13.2608
13.3909
12.5002
8.88639
9.63229
10.4876
11.3785
12.2173
12.9463
13.5486
14.0351
14.4557
14.8704
15.4116
15.2138
9.55059
10.3398
11.2474
12.2073
13.1115
13.9002
14.5717
15.1498
15.7121
16.3619
17.45
18.1832
10.1851
10.9943
11.9225
12.9253
13.8625
14.6745
15.3809
16.0195
16.6899
17.5524
19.2581
21.0443
10.8505
11.6085
12.5035
13.4871
14.39
15.1813
15.8838
16.5369
17.2402
18.1915
20.4485
22.8502
11.5143
12.1549
12.9635
13.8373
14.6481
15.3698
16.0117
16.6304
17.2872
18.1593
20.3992
23.3384
0.137616
-0.0639507
-0.00691625
-0.241478
-1.25908
-2.54942
-3.9332
-5.11231
-5.95853
-6.38608
-6.38091
-5.95456
1.87299
1.49689
2.10565
2.38771
2.27384
1.87791
1.38133
0.922115
0.57426
0.41573
0.488525
0.809832
3.07454
2.98299
3.03423
2.93673
2.71298
2.40716
2.08004
1.7947
1.612
1.58552
1.75513
2.13108
2.79518
3.46329
3.69464
3.77143
3.76304
3.70231
3.61831
3.54643
3.53361
3.61444
3.82586
4.20066
2.80705
3.95715
4.38995
4.6876
4.82759
4.87495
4.8611
4.82582
4.839
4.95035
5.17871
5.55645
3.26552
4.80262
5.27395
5.6733
5.87553
5.96345
5.9715
5.94829
5.95855
6.06252
6.28981
6.66972
4.16894
5.85886
6.3796
6.81332
7.00397
7.06744
7.04425
6.98928
6.96344
7.01862
7.20382
7.56367
5.10047
7.29768
7.7092
8.09305
8.21333
8.19804
8.09675
7.96946
7.87046
7.85499
7.97916
8.30786
6.6868
9.1232
9.31062
9.52513
9.4979
9.35398
9.14341
8.91935
8.72786
8.6252
8.6719
8.95737
9.01454
11.2704
11.0455
10.9938
10.7974
10.5106
10.1847
9.86137
9.57337
9.37976
9.34344
9.58302
11.8534
13.5952
12.8805
12.4383
12.0578
11.6398
11.2182
10.816
10.447
10.1799
10.0754
10.2736
14.0913
15.4363
14.4024
13.7348
13.2133
12.7129
12.2433
11.8037
11.3828
11.0637
10.8881
11.019
-5.14146
-3.99199
-2.57201
-0.963128
0.749383
2.48102
4.13863
5.61578
6.83308
7.77639
8.19008
7.96495
1.36554
2.11472
3.01455
4.01343
5.0553
6.07423
6.99317
7.7393
8.30979
8.83385
8.87987
8.08445
2.70379
3.44301
4.29799
5.21167
6.12873
6.99641
7.75678
8.34224
8.70824
8.9508
8.8578
7.68436
4.73581
5.40537
6.16155
6.94734
7.70531
8.38042
8.92957
9.31223
9.49024
9.48026
9.2456
7.75383
6.08873
6.74771
7.48566
8.23978
8.94773
9.5569
10.0318
10.3594
10.5058
10.4505
10.157
8.6366
7.21201
7.88913
8.64669
9.41944
10.1375
10.7494
11.2263
11.5614
11.7359
11.7582
11.597
10.2647
8.1172
8.82769
9.63232
10.4587
11.2296
11.8904
12.4171
12.8125
13.0909
13.2765
13.4057
12.5163
8.87293
9.62738
10.4913
11.3896
12.2331
12.9647
13.5671
14.0526
14.4726
14.8847
15.4274
15.231
9.53463
10.334
11.2519
12.2204
13.1298
13.9205
14.5918
15.1685
15.7284
16.3778
17.4655
18.2007
10.167
10.9876
11.9276
12.9398
13.8821
14.6956
15.4014
16.038
16.7066
17.5666
19.2731
21.0616
10.8301
11.5996
12.5077
13.5007
14.4082
15.2009
15.9028
16.5541
17.2548
18.2045
20.4616
22.8631
11.4915
12.1422
12.9649
13.8473
14.6625
15.3856
16.027
16.6443
17.2994
18.1701
20.4098
23.3488
0.124451
-0.0781158
-0.0204454
-0.237484
-1.24003
-2.52013
-3.89811
-5.07446
-5.92188
-6.3518
-6.35147
-5.93058
1.85145
1.47453
2.08112
2.378
2.27478
1.88919
1.39856
0.944519
0.598845
0.440668
0.511314
0.829033
3.05687
2.9715
3.02723
2.93897
2.72028
2.42076
2.09787
1.81613
1.63484
1.60779
1.77509
2.14747
2.79706
3.46595
3.70019
3.78171
3.77655
3.71956
3.63837
3.56869
3.55651
3.63643
3.84551
4.21617
2.82743
3.97337
4.40641
4.70612
4.84805
4.89848
4.88656
4.85435
4.86604
4.97607
5.19904
5.5729
3.2967
4.82698
5.29926
5.69838
5.90308
5.99229
6.00402
5.98013
5.99136
6.08969
6.31415
6.6855
4.20121
5.88239
6.40629
6.84201
7.03487
7.10128
7.07906
7.0254
6.99702
7.05006
7.229
7.58209
5.129
7.32884
7.73241
8.12188
8.24646
8.23424
8.13501
8.00841
7.90811
7.88945
8.00766
8.32763
6.72187
9.14853
9.34382
9.55642
9.53265
9.39199
9.18401
8.96103
8.76886
8.66308
8.70359
8.97901
9.03491
11.2849
11.0701
11.0224
10.8315
10.5491
10.2266
9.90496
9.61702
9.42059
9.3781
9.60622
11.8548
13.597
12.9005
12.4632
12.0896
11.6774
11.26
10.8604
10.492
10.2225
10.1117
10.2978
14.0728
15.4288
14.4172
13.755
13.242
12.7482
12.2831
11.8464
11.427
11.1059
10.9246
11.0437
-5.12385
-3.98054
-2.56608
-0.961338
0.748579
2.47874
4.13591
5.61339
6.83157
7.77585
8.18948
7.96394
1.38027
2.1248
3.02031
4.0153
5.05405
6.07123
6.98933
7.73568
8.30674
8.83148
8.87778
8.08202
2.71578
3.45041
4.30136
5.21185
6.1265
6.9927
7.75226
8.33751
8.70373
8.94666
8.85402
7.68025
4.7466
5.41093
6.16277
6.94496
7.70067
8.3745
8.92337
9.30617
9.48445
9.47465
9.24037
7.7481
6.09799
6.75205
7.48426
8.2351
8.94065
9.54903
10.0241
10.3524
10.4994
10.4438
10.1509
8.62978
7.22226
7.89131
8.64387
9.41226
10.1284
10.7398
11.2172
11.5532
11.7281
11.7518
11.5903
10.2577
8.1265
8.82941
9.62723
10.4494
11.2186
11.8794
12.4072
12.8038
13.0842
13.2693
13.3999
12.5098
8.88264
9.62775
10.4843
11.3778
12.2202
12.9524
13.5568
14.0442
14.4652
14.8797
15.4219
15.2258
9.5444
10.3334
11.2428
12.2059
13.115
13.9074
14.5813
15.1605
15.7228
16.3724
17.4613
18.1972
10.177
10.9864
11.9166
12.9228
13.8659
14.6822
15.3914
16.0312
16.7013
17.563
19.2698
21.0587
10.8413
11.5995
12.4959
13.4829
14.3913
15.1874
15.8931
16.5482
17.2512
18.2016
20.4587
22.8616
11.5048
12.1448
12.9544
13.8313
14.646
15.373
16.0184
16.6391
17.2962
18.1675
20.4067
23.3456
17.0288
16.7021
15.5242
14.7605
14.2088
13.7012
13.2305
12.7939
12.3478
11.9964
11.7464
11.7946
16.5848
16.2762
15.8469
15.4347
15.0474
14.6396
14.2397
13.8366
13.391
13.021
12.6978
12.6618
16.0346
16.0563
15.9609
15.8294
15.6607
15.4488
15.1932
14.8762
14.4853
14.1071
13.7408
13.6362
15.4938
15.8151
16.0245
16.1919
16.3502
16.4721
16.4813
16.3025
15.9176
15.4803
15.121
14.9785
12.1213
12.5986
13.27
13.9564
14.6405
15.2443
15.786
16.3216
16.8531
17.4545
18.3535
19.7214
12.7969
13.0531
13.5185
13.9586
14.4371
14.8821
15.3094
15.7487
16.1688
16.6114
16.8607
17.687
13.5793
13.5543
13.6183
13.7824
14.0366
14.3199
14.627
14.9778
15.3314
15.7347
15.8678
16.4967
14.4314
13.8181
13.4785
13.4285
13.4573
13.5647
13.739
13.9983
14.3121
14.7233
14.8857
15.4069
17.0627
16.7121
15.524
14.7624
14.2169
13.7129
13.2492
12.8209
12.3831
12.0388
11.7943
11.8386
16.6088
16.2882
15.847
15.4384
15.055
14.6481
14.2541
13.8592
13.4214
13.0577
12.741
12.7023
16.0541
16.0723
15.9711
15.8394
15.6668
15.4549
15.2015
14.8906
14.5053
14.1334
13.7749
13.6697
15.5164
15.8403
16.0465
16.2094
16.3626
16.4755
16.4776
16.2987
15.9202
15.491
15.1394
15.0024
12.1642
12.6335
13.2877
13.9676
14.647
15.2493
15.79
16.3255
16.8576
17.4604
18.3623
19.7376
12.8371
13.0898
13.5469
13.9815
14.4551
14.8973
15.3218
15.7586
16.1764
16.6177
16.8662
17.6953
13.615
13.5914
13.6548
13.8133
14.0634
14.3431
14.6459
14.9925
15.3419
15.7416
15.872
16.5004
14.4708
13.8635
13.52
13.466
13.4909
13.5939
13.763
14.0166
14.3248
14.7309
14.8886
15.4073
17.0728
16.7254
15.5351
14.77
14.2179
13.7093
13.2407
12.8075
12.3643
12.0158
11.7675
11.8132
16.6145
16.2959
15.8567
15.4445
15.0569
14.6474
14.2498
13.8509
13.4081
13.0404
12.7193
12.6811
16.0563
16.0759
15.9755
15.8424
15.6701
15.4572
15.2027
14.8891
14.5002
14.1241
13.7607
13.6547
15.5144
15.8373
16.0445
16.2088
16.3642
16.4816
16.4877
16.3095
15.9277
15.493
15.1356
14.9935
12.14
12.6172
13.2853
13.9715
14.6553
15.259
15.7999
16.3349
16.866
17.4683
18.3685
19.7372
12.8156
13.0742
13.5388
13.9769
14.4545
14.899
15.3251
15.763
16.1813
16.6233
16.8704
17.6972
13.596
13.5748
13.6402
13.8014
14.0547
14.3376
14.6434
14.9925
15.3439
15.746
15.8773
16.508
14.4483
13.8395
13.499
13.4475
13.4753
13.5821
13.7553
14.0131
14.3249
14.7347
14.8956
15.4186
17.0496
16.719
15.546
14.7853
14.2421
13.741
13.2766
12.8465
12.4054
12.0554
11.8027
11.8375
16.6099
16.2991
15.866
15.458
15.0765
14.6733
14.2791
13.8833
13.4434
13.0753
12.7512
12.7034
16.0618
16.0821
15.9856
15.8554
15.6857
15.4752
15.223
14.9123
14.5265
14.1519
13.7866
13.6736
15.5262
15.8498
16.0576
16.2209
16.3744
16.4889
16.4949
16.3193
15.9419
15.5103
15.1526
15.0105
12.1552
12.6189
13.2763
13.9596
14.6415
15.2485
15.7927
16.3303
16.8631
17.4649
18.3626
19.728
12.8312
13.0756
13.5348
13.9707
14.4455
14.8912
15.3192
15.7587
16.178
16.6185
16.8616
17.682
13.6129
13.5835
13.6449
13.8011
14.0515
14.3333
14.639
14.9884
15.3397
15.7394
15.8658
16.488
14.4741
13.8622
13.5123
13.4545
13.4777
13.5811
13.7524
14.009
14.3197
14.7269
14.8821
15.3946
15.4256
15.8097
16.0875
16.2982
16.4599
16.5898
16.6632
16.6471
16.4688
16.1041
15.7154
15.5046
15.8531
16.0788
16.1824
16.2335
16.2543
16.2758
16.2884
16.2687
16.1739
15.9671
15.7686
15.7308
16.1769
16.3048
16.2964
16.2306
16.1553
16.1197
16.1229
16.1367
16.113
16.0158
15.9411
15.985
16.3746
16.4375
16.3665
16.2381
16.1173
16.0629
16.0729
16.1137
16.1393
16.1169
16.1271
16.213
15.0038
14.3619
13.8141
13.6125
13.5474
13.5754
13.6787
13.8646
14.126
14.5
14.7002
15.1266
15.3492
14.8674
14.4264
14.2404
14.1692
14.1888
14.2849
14.46
14.7026
15.0323
15.2707
15.6158
15.615
15.1989
14.8446
14.6932
14.6355
14.6585
14.7527
14.9212
15.1538
15.4471
15.681
15.977
15.8228
15.4179
15.1627
15.0455
15.0027
15.0301
15.1216
15.2795
15.4941
15.7528
15.9717
16.2157
15.4455
15.8337
16.1102
16.3168
16.4711
16.5939
16.6601
16.6401
16.4639
16.1066
15.7267
15.5229
15.8639
16.0892
16.1959
16.246
16.2634
16.2806
16.2884
16.2652
16.171
15.9684
15.7748
15.7433
16.1805
16.3073
16.3011
16.2361
16.1609
16.1235
16.1236
16.1343
16.1101
16.0146
15.9429
15.9914
16.3722
16.4336
16.3646
16.2385
16.1197
16.0652
16.0732
16.1113
16.1354
16.1131
16.1242
16.2137
15.0356
14.4018
13.8558
13.651
13.5822
13.6058
13.7041
13.8846
14.1405
14.5087
14.7053
15.1279
15.3747
14.8978
14.461
14.2741
14.2007
14.2171
14.3092
14.4799
14.718
15.0437
15.2782
15.6214
15.6374
15.2248
14.8747
14.7235
14.6643
14.6849
14.7759
14.9408
15.1698
15.4599
15.6918
15.9855
15.8437
15.4427
15.1904
15.0735
15.0298
15.0553
15.1442
15.2992
15.511
15.7676
15.9843
16.2272
15.4444
15.8306
16.1073
16.3159
16.4741
16.6008
16.6709
16.6534
16.4768
16.1152
15.7287
15.5177
15.868
16.0921
16.1978
16.2482
16.2671
16.2861
16.296
16.2747
16.181
15.9763
15.7791
15.7423
16.1886
16.3148
16.3075
16.2416
16.1656
16.1284
16.1298
16.1425
16.1198
16.0239
15.9506
15.9948
16.3832
16.4442
16.3742
16.2463
16.1255
16.0702
16.0792
16.1195
16.146
16.1246
16.136
16.2222
15.0184
14.3816
13.833
13.6302
13.5642
13.5916
13.694
13.8788
14.1387
14.5112
14.7103
15.1382
15.3614
14.8835
14.4427
14.2564
14.1848
14.2038
14.2992
14.4733
14.7147
15.0432
15.2807
15.6266
15.6256
15.2124
14.8588
14.7076
14.6496
14.6722
14.7658
14.9334
15.1651
15.4576
15.6908
15.9872
15.8328
15.4295
15.1752
15.0584
15.0156
15.0428
15.1338
15.291
15.5049
15.763
15.9815
16.2258
15.4566
15.8443
16.1208
16.327
16.481
16.6049
16.6739
16.6567
16.4828
16.1256
15.741
15.5323
15.8747
16.1006
16.2073
16.2572
16.2743
16.2924
16.302
16.2807
16.1875
15.9844
15.7877
15.7527
16.1909
16.3187
16.3131
16.2482
16.1728
16.1357
16.1368
16.1486
16.125
16.029
15.9555
16.0011
16.3828
16.4452
16.377
16.2511
16.1319
16.0773
16.0858
16.1246
16.1494
16.1269
16.1372
16.2242
15.0407
14.4038
13.8512
13.6416
13.5702
13.5934
13.693
13.8759
14.1341
14.5034
14.6988
15.1152
15.3796
14.9005
14.4588
14.268
14.1922
14.2078
14.3005
14.4727
14.7122
15.0386
15.272
15.6093
15.6423
15.2277
14.8738
14.7195
14.6582
14.6778
14.7691
14.9351
15.1654
15.4563
15.6877
15.9753
15.8484
15.4451
15.1902
15.0709
15.0254
15.0501
15.1391
15.295
15.508
15.7658
15.9823
16.2196
16.5105
16.517
16.401
16.2371
16.0991
16.044
16.0665
16.1305
16.1945
16.2318
16.319
16.446
16.6055
16.5676
16.4209
16.2406
16.1023
16.0546
16.0896
16.1707
16.2622
16.3408
16.4626
16.6225
16.6728
16.604
16.4408
16.258
16.1274
16.0892
16.1335
16.2253
16.3353
16.4413
16.5829
16.7576
16.7231
16.6352
16.4667
16.2895
16.1691
16.1396
16.1891
16.2869
16.4088
16.5323
16.6835
16.8568
16.7654
16.6669
16.5003
16.3321
16.2219
16.1986
16.25
16.3503
16.4794
16.6144
16.7697
16.9335
16.8034
16.7006
16.5398
16.3817
16.2802
16.2609
16.3112
16.4116
16.5445
16.6873
16.8429
16.9893
16.8399
16.7368
16.5833
16.4349
16.3404
16.3229
16.3698
16.4682
16.6025
16.751
16.9043
17.0286
16.8772
16.776
16.6297
16.4899
16.4
16.382
16.4234
16.5179
16.6511
16.8041
16.9539
17.053
16.921
16.8217
16.681
16.5462
16.458
16.4369
16.4699
16.5581
16.6876
16.8429
16.9897
17.0655
16.9856
16.8857
16.744
16.6071
16.5142
16.4871
16.5072
16.5852
16.7075
16.8626
17.0065
17.0689
17.0868
16.9802
16.8282
16.6778
16.5709
16.5345
16.5361
16.6006
16.7131
16.8667
17.0073
17.0663
17.1799
17.0729
16.9149
16.7533
16.6385
16.572
16.5714
16.6262
16.7288
16.8734
17.0069
17.0626
15.942
15.6132
15.4223
15.3293
15.2984
15.3303
15.421
15.5712
15.77
15.9999
16.199
16.3956
16.05
15.8137
15.6391
15.5578
15.5328
15.5668
15.6564
15.8005
15.9864
16.1932
16.3741
16.5304
16.1602
15.9571
15.811
15.7386
15.7157
15.7494
15.8371
15.9763
16.152
16.3414
16.5045
16.6283
16.2479
16.0769
15.9483
15.8807
15.8569
15.8884
15.9734
16.1085
16.2766
16.4528
16.6019
16.7009
16.3175
16.171
16.0575
15.9916
15.9655
15.9938
16.0759
16.2078
16.3704
16.5378
16.6755
16.7568
16.3702
16.2472
16.1437
16.0772
16.0484
16.0738
16.1531
16.2829
16.4418
16.6031
16.7329
16.8025
16.4084
16.3077
16.2108
16.1421
16.1112
16.135
16.2129
16.3419
16.4984
16.656
16.7799
16.8421
16.4338
16.3547
16.2607
16.189
16.1579
16.1822
16.2608
16.391
16.5467
16.7024
16.8223
16.8798
16.4479
16.3876
16.293
16.2191
16.1905
16.2193
16.3019
16.4363
16.5938
16.7499
16.8676
16.9223
16.4527
16.4039
16.3064
16.2317
16.2105
16.2499
16.3407
16.4847
16.6502
16.8116
16.9315
16.9859
16.451
16.4076
16.3067
16.2333
16.2225
16.2786
16.3828
16.5438
16.7256
16.9
17.0304
17.0884
16.4475
16.4028
16.309
16.2422
16.2409
16.3023
16.4313
16.6023
16.7958
16.9784
17.1137
17.1752
16.5019
16.5072
16.3939
16.2335
16.0989
16.0448
16.0659
16.1273
16.1893
16.2254
16.3117
16.4399
16.5925
16.5535
16.4101
16.2342
16.1001
16.0539
16.0879
16.1664
16.2554
16.332
16.4521
16.6115
16.656
16.5865
16.4274
16.2495
16.1232
16.0868
16.1302
16.2195
16.3268
16.4303
16.5693
16.7425
16.7041
16.6157
16.4516
16.2794
16.1633
16.1353
16.184
16.2795
16.3985
16.5192
16.6673
16.8386
16.7444
16.6459
16.4838
16.3204
16.2142
16.1924
16.2429
16.341
16.4673
16.5993
16.751
16.9125
16.7812
16.6786
16.5222
16.3685
16.2707
16.2527
16.3023
16.4007
16.5307
16.6705
16.822
16.9661
16.8166
16.7139
16.5646
16.4203
16.3291
16.3128
16.3591
16.4557
16.5871
16.7326
16.8814
17.0034
16.853
16.7523
16.6101
16.4739
16.3871
16.3702
16.411
16.5039
16.6344
16.7844
16.9295
17.026
16.8957
16.7974
16.6603
16.529
16.4436
16.4234
16.4561
16.5427
16.6698
16.8221
16.9643
17.0373
16.9593
16.8605
16.7223
16.5887
16.4985
16.4722
16.4921
16.5688
16.6888
16.841
16.9804
17.04
17.0592
16.9538
16.8052
16.6581
16.5538
16.5184
16.52
16.5833
16.6937
16.8442
16.9805
17.0372
17.1511
17.0451
16.8903
16.732
16.6197
16.5547
16.554
16.6077
16.7085
16.8501
16.9795
17.0334
15.9649
15.6381
15.4488
15.356
15.3244
15.3548
15.4434
15.5913
15.7879
16.016
16.2145
16.4098
16.0739
15.8385
15.6649
15.5838
15.5582
15.591
15.679
15.8212
16.0054
16.2113
16.3912
16.5472
16.1847
15.9822
15.8365
15.7642
15.7409
15.7736
15.8599
15.9976
16.1721
16.3607
16.5239
16.6473
16.2729
16.1022
15.9738
15.9062
15.8821
15.9127
15.9966
16.1305
16.2977
16.4736
16.6225
16.7217
16.3431
16.1967
16.0831
16.0171
15.9907
16.0182
16.0994
16.2304
16.3924
16.5595
16.6976
16.779
16.3962
16.2732
16.1696
16.1029
16.0738
16.0985
16.177
16.306
16.4644
16.6258
16.7559
16.8258
16.4348
16.3341
16.237
16.1681
16.1369
16.1599
16.2371
16.3653
16.5216
16.6794
16.8039
16.8663
16.4603
16.3813
16.2871
16.2151
16.1836
16.2073
16.2852
16.4148
16.5704
16.7264
16.847
16.9049
16.4745
16.4144
16.3197
16.2453
16.2164
16.2445
16.3266
16.4603
16.6179
16.7741
16.8928
16.948
16.4794
16.4308
16.3331
16.2581
16.2364
16.2752
16.3654
16.5088
16.6745
16.8362
16.9572
17.0122
16.4777
16.4344
16.3335
16.2597
16.2484
16.3038
16.4075
16.568
16.7499
16.925
17.0565
17.1155
16.4742
16.4296
16.3358
16.2686
16.2667
16.3275
16.4559
16.6265
16.8203
17.0038
17.1404
17.2031
16.5159
16.5207
16.4059
16.243
16.1057
16.0504
16.0723
16.1362
16.2011
16.2393
16.3276
16.4546
16.6089
16.5692
16.424
16.2451
16.1079
16.0604
16.0952
16.1763
16.2686
16.3481
16.4707
16.631
16.6747
16.6042
16.4429
16.2617
16.1323
16.0945
16.1388
16.2308
16.3416
16.4484
16.5907
16.7657
16.7244
16.6348
16.4684
16.2927
16.1735
16.1443
16.1941
16.2922
16.4149
16.5392
16.691
16.8647
16.7662
16.6663
16.5017
16.3349
16.2258
16.2029
16.2545
16.3554
16.4853
16.6211
16.777
16.941
16.8041
16.7
16.5411
16.3842
16.2836
16.2648
16.3154
16.4165
16.5504
16.694
16.8499
16.9967
16.8405
16.7363
16.5845
16.4373
16.3434
16.3264
16.3738
16.4731
16.6083
16.7576
16.9112
17.0357
16.8778
16.7756
16.631
16.492
16.4027
16.3853
16.4271
16.5227
16.6569
16.8107
16.9607
17.0597
16.9212
16.8216
16.682
16.5483
16.4603
16.4399
16.4735
16.5628
16.6935
16.8497
16.9964
17.072
16.9856
16.8856
16.7453
16.6091
16.5165
16.49
16.5107
16.59
16.7134
16.8694
17.0132
17.0752
17.0865
16.9801
16.8295
16.6798
16.5731
16.5374
16.5397
16.6053
16.719
16.8732
17.0139
17.0725
17.1795
17.0728
16.9161
16.7551
16.6405
16.5747
16.5748
16.6307
16.7346
16.8799
17.0134
17.0687
15.9512
15.6235
15.4337
15.3411
15.3103
15.3421
15.4324
15.5821
15.7804
16.0099
16.209
16.406
16.0588
15.8232
15.6496
15.5688
15.544
15.5779
15.6673
15.8111
15.9967
16.2034
16.3843
16.5412
16.169
15.9664
15.8209
15.749
15.7263
15.76
15.8476
15.9865
16.1621
16.3516
16.5151
16.6397
16.2567
16.0861
15.9579
15.8906
15.8671
15.8986
15.9836
16.1186
16.2867
16.4632
16.6128
16.7127
16.3265
16.1802
16.0668
16.0011
15.9753
16.0036
16.0858
16.2178
16.3806
16.5483
16.6866
16.7689
16.3793
16.2564
16.1529
16.0866
16.0579
16.0834
16.1629
16.2928
16.452
16.6137
16.7442
16.8148
16.4176
16.317
16.2199
16.1513
16.1206
16.1444
16.2225
16.3516
16.5086
16.6667
16.7914
16.8545
16.4429
16.364
16.2697
16.198
16.1671
16.1915
16.2704
16.4008
16.557
16.7132
16.8339
16.8924
16.4571
16.3968
16.3022
16.2279
16.1997
16.2285
16.3115
16.4459
16.6042
16.7606
16.8793
16.935
16.462
16.4132
16.3154
16.2407
16.2196
16.259
16.3502
16.4944
16.6605
16.8224
16.9433
16.9986
16.4602
16.4168
16.3158
16.2423
16.2316
16.2877
16.3923
16.5535
16.7359
16.9108
17.0421
17.1012
16.4568
16.4122
16.3182
16.2512
16.25
16.3115
16.4407
16.6121
16.8061
16.9893
17.1256
17.1882
16.513
16.5193
16.4067
16.2463
16.1111
16.0567
16.0779
16.14
16.2026
16.239
16.3253
16.4521
16.6041
16.5662
16.4233
16.2472
16.1122
16.0655
16.0995
16.1786
16.2684
16.3455
16.4659
16.6247
16.6682
16.5997
16.4409
16.2625
16.1352
16.0983
16.1416
16.2315
16.3396
16.4437
16.5833
16.7565
16.7167
16.6291
16.4652
16.2923
16.1753
16.1467
16.1955
16.2915
16.4113
16.5327
16.6815
16.8531
16.7573
16.6594
16.4974
16.3334
16.2262
16.2039
16.2545
16.3531
16.4801
16.6129
16.7654
16.9273
16.7943
16.6922
16.5358
16.3815
16.2828
16.2644
16.314
16.4129
16.5437
16.6843
16.8366
16.9812
16.8298
16.7276
16.5782
16.4334
16.3414
16.3247
16.3711
16.4682
16.6003
16.7466
16.8963
17.0188
16.8663
16.766
16.6237
16.487
16.3996
16.3824
16.4233
16.5166
16.6479
16.7986
16.9446
17.0417
16.9091
16.8112
16.6739
16.5422
16.4562
16.4358
16.4687
16.5557
16.6835
16.8366
16.9796
17.053
16.9728
16.8744
16.7361
16.6021
16.5113
16.4849
16.505
16.5821
16.7026
16.8555
16.9958
17.0559
17.0729
16.9679
16.8192
16.6717
16.5669
16.5314
16.5331
16.5968
16.7077
16.8588
16.996
17.053
17.1649
17.0594
16.9047
16.7459
16.6332
16.568
16.5673
16.6214
16.7227
16.865
16.995
17.0492
15.968
15.6399
15.449
15.3544
15.3214
15.351
15.4397
15.5883
15.7861
16.0156
16.2146
16.4048
16.0763
15.8401
15.6654
15.5829
15.5562
15.5884
15.6763
15.8193
16.0046
16.2119
16.3926
16.5442
16.187
15.9837
15.8373
15.7639
15.7396
15.7717
15.8581
15.9965
16.172
16.3618
16.5262
16.6455
16.2753
16.104
15.9748
15.9063
15.8813
15.9115
15.9954
16.1299
16.2981
16.4751
16.6251
16.7207
16.3457
16.1987
16.0843
16.0175
15.9903
16.0175
16.0986
16.2303
16.3931
16.5611
16.7003
16.7784
16.399
16.2754
16.1709
16.1035
16.0736
16.0981
16.1766
16.3062
16.4655
16.6275
16.7584
16.8255
16.4376
16.3365
16.2384
16.1688
16.1368
16.1597
16.2369
16.3659
16.5229
16.6811
16.8063
16.8662
16.4633
16.3839
16.2886
16.2159
16.1838
16.2073
16.2854
16.4156
16.5719
16.7282
16.8492
16.905
16.4777
16.4171
16.3212
16.2463
16.2166
16.2448
16.3268
16.4615
16.6196
16.7763
16.895
16.9484
16.4827
16.4335
16.3347
16.2591
16.2368
16.2756
16.366
16.5103
16.6767
16.8388
16.9596
17.0131
16.481
16.4373
16.3352
16.2607
16.2489
16.3045
16.4085
16.57
16.7528
16.9284
17.0597
17.1169
16.4775
16.4326
16.3377
16.2698
16.2675
16.3285
16.4574
16.6291
16.8238
17.0079
17.1442
17.2052
)
;

boundaryField
{
    rotor
    {
        type            zeroGradient;
    }
    stator
    {
        type            zeroGradient;
    }
    front
    {
        type            empty;
    }
    back
    {
        type            empty;
    }
}


// ************************************************************************* //
