/*--------------------------------*- C++ -*----------------------------------*\
| =========                 |                                                 |
| \\      /  F ield         | OpenFOAM: The Open Source CFD Toolbox           |
|  \\    /   O peration     | Version:  v1912                                 |
|   \\  /    A nd           | Website:  www.openfoam.com                      |
|    \\/     M anipulation  |                                                 |
\*---------------------------------------------------------------------------*/
FoamFile
{
    version     2.0;
    format      ascii;
    class       surfaceScalarField;
    location    "50";
    object      phi;
}
// * * * * * * * * * * * * * * * * * * * * * * * * * * * * * * * * * * * * * //

dimensions      [0 3 -1 0 0 0 0];
oriented        oriented;


internalField   nonuniform List<scalar> 
5952
(
5.02037e-06
-4.79451e-06
-3.23501e-06
8.2699e-06
-2.21888e-05
1.89458e-05
-4.2977e-05
2.07861e-05
-6.03326e-05
1.73513e-05
-7.48653e-05
1.4527e-05
-8.64265e-05
1.15598e-05
-9.552e-05
9.08788e-06
-0.000102198
6.67783e-06
-0.00010667
4.46864e-06
-0.000109102
2.43309e-06
5.49599e-07
-0.000109653
-2.0568e-05
1.57805e-05
-3.90374e-05
2.67438e-05
-5.13174e-05
3.12245e-05
-6.03058e-05
2.97724e-05
-6.88573e-05
2.58999e-05
-7.64654e-05
2.21312e-05
-8.30105e-05
1.81029e-05
-8.81088e-05
1.41824e-05
-9.17518e-05
1.032e-05
-9.39426e-05
6.6567e-06
-9.47181e-05
3.20902e-06
1.22542e-08
-9.4182e-05
-1.86986e-05
3.44844e-05
-3.4073e-05
4.21202e-05
-4.5201e-05
4.23519e-05
-5.3753e-05
3.83226e-05
-6.15241e-05
3.3669e-05
-6.82179e-05
2.88219e-05
-7.38049e-05
2.36882e-05
-7.81271e-05
1.85019e-05
-8.11345e-05
1.33266e-05
-8.27739e-05
8.29464e-06
-8.30351e-05
3.47024e-06
-1.10332e-06
-8.19198e-05
-1.65573e-05
5.10434e-05
-2.8905e-05
5.44684e-05
-3.87115e-05
5.21575e-05
-4.70843e-05
4.66931e-05
-5.43619e-05
4.09447e-05
-6.04548e-05
3.49122e-05
-6.53948e-05
2.8627e-05
-6.91209e-05
2.2226e-05
-7.15708e-05
1.57759e-05
-7.26608e-05
9.3834e-06
-7.23339e-05
3.14343e-06
-2.85854e-06
-7.0579e-05
-1.41247e-05
6.51675e-05
-2.43136e-05
6.46563e-05
-3.25413e-05
6.03835e-05
-3.97176e-05
5.38669e-05
-4.59907e-05
4.72159e-05
-5.1353e-05
4.02719e-05
-5.57595e-05
3.30322e-05
-5.90798e-05
2.55443e-05
-6.12111e-05
1.79067e-05
-6.20288e-05
1.01997e-05
-6.13877e-05
2.50249e-06
-5.01618e-06
-5.92308e-05
-1.02063e-05
7.5372e-05
-1.85179e-05
7.29666e-05
-2.51493e-05
6.70126e-05
-3.10033e-05
5.97196e-05
-3.62058e-05
5.24154e-05
-4.07834e-05
4.48491e-05
-4.46532e-05
3.68992e-05
-4.7647e-05
2.85387e-05
-4.95898e-05
1.98472e-05
-5.02445e-05
1.08559e-05
-4.93945e-05
1.6509e-06
-7.45632e-06
-4.69522e-05
-6.86475e-06
8.22336e-05
-1.17309e-05
7.78294e-05
-1.64999e-05
7.17801e-05
-2.08886e-05
6.4105e-05
-2.49116e-05
5.64379e-05
-2.85871e-05
4.85217e-05
-3.1791e-05
4.0104e-05
-3.43547e-05
3.11e-05
-3.60175e-05
2.15118e-05
-3.64917e-05
1.13288e-05
-3.55169e-05
6.78723e-07
-1.00686e-05
-3.29048e-05
-1.79448e-06
8.40238e-05
-4.64884e-06
8.06802e-05
-6.97984e-06
7.41068e-05
-9.50309e-06
6.66248e-05
-1.21505e-05
5.90822e-05
-1.47737e-05
5.11429e-05
-1.71668e-05
4.24957e-05
-1.91045e-05
3.3037e-05
-2.0324e-05
2.2731e-05
-2.05206e-05
1.15258e-05
-1.93806e-05
-4.606e-07
-1.28501e-05
-1.65979e-05
2.33525e-06
8.16775e-05
3.9796e-06
7.90278e-05
4.1769e-06
7.39028e-05
3.30364e-06
6.74925e-05
1.96854e-06
6.04122e-05
4.27757e-07
5.26802e-05
-1.04639e-06
4.39669e-05
-2.19414e-06
3.4183e-05
-2.77584e-06
2.33116e-05
-2.48518e-06
1.12348e-05
-9.81407e-07
-1.9641e-06
-1.59753e-05
2.14437e-06
7.97571e-06
7.36978e-05
1.2513e-05
7.44834e-05
1.59115e-05
7.04984e-05
1.70039e-05
6.63942e-05
1.69799e-05
6.04314e-05
1.64826e-05
5.31737e-05
1.59448e-05
4.45016e-05
1.56877e-05
3.44384e-05
1.59247e-05
2.30732e-05
1.69835e-05
1.01759e-05
1.92139e-05
-4.19467e-06
-1.98685e-05
2.31081e-05
1.62263e-05
5.74612e-05
2.54493e-05
6.52538e-05
2.96112e-05
6.63309e-05
3.1661e-05
6.43384e-05
3.24756e-05
5.96112e-05
3.27762e-05
5.28681e-05
3.30547e-05
4.42194e-05
3.36898e-05
3.38002e-05
3.48692e-05
2.18922e-05
3.70162e-05
8.02785e-06
4.05023e-05
-7.68086e-06
-2.5219e-05
4.58535e-05
2.34753e-05
3.39811e-05
3.66383e-05
5.20881e-05
4.33887e-05
5.95772e-05
4.63669e-05
6.13571e-05
4.77626e-05
5.82118e-05
4.86567e-05
5.19706e-05
4.96089e-05
4.32645e-05
5.11262e-05
3.22808e-05
5.34076e-05
1.96095e-05
5.71098e-05
4.32485e-06
6.25803e-05
-1.31512e-05
7.01289e-05
-3.27669e-05
-0.0001085
-1.15151e-06
-0.000105797
-2.70281e-06
-0.000101605
-4.18862e-06
-9.59608e-05
-5.6417e-06
-8.88606e-05
-7.09622e-06
-8.02505e-05
-8.60668e-06
-7.004e-05
-1.0206e-05
-5.81214e-05
-1.19138e-05
-4.43546e-05
-1.37626e-05
-2.87562e-05
-1.5593e-05
-1.21198e-05
-1.66253e-05
-1.2116e-05
-9.24161e-05
-2.91573e-06
-8.95248e-05
-5.59372e-06
-8.56277e-05
-8.08288e-06
-8.08601e-05
-1.04072e-05
-7.52924e-05
-1.26604e-05
-6.89541e-05
-1.49417e-05
-6.17815e-05
-1.73742e-05
-5.3578e-05
-2.01125e-05
-4.40778e-05
-2.32576e-05
-3.27796e-05
-2.68861e-05
-1.8999e-05
-3.03987e-05
-3.11131e-05
-7.9509e-05
-5.32568e-06
-7.59885e-05
-9.11342e-06
-7.16044e-05
-1.24654e-05
-6.65794e-05
-1.54305e-05
-6.11065e-05
-1.81311e-05
-5.52744e-05
-2.07714e-05
-4.90476e-05
-2.3598e-05
-4.2276e-05
-2.68806e-05
-3.46509e-05
-3.08792e-05
-2.59659e-05
-3.55677e-05
-1.51605e-05
-4.12007e-05
-4.6273e-05
-6.75052e-05
-8.39895e-06
-6.33113e-05
-1.33069e-05
-5.82846e-05
-1.74911e-05
-5.27495e-05
-2.09645e-05
-4.70129e-05
-2.38661e-05
-4.13214e-05
-2.6461e-05
-3.58059e-05
-2.91112e-05
-3.04489e-05
-3.22351e-05
-2.49456e-05
-3.63804e-05
-1.89085e-05
-4.16034e-05
-1.15199e-05
-4.85885e-05
-5.77905e-05
-5.56464e-05
-1.19826e-05
-5.08777e-05
-1.80756e-05
-4.52821e-05
-2.30854e-05
-3.92877e-05
-2.69578e-05
-3.33373e-05
-2.98145e-05
-2.78179e-05
-3.19786e-05
-2.29907e-05
-3.39361e-05
-1.8956e-05
-3.6268e-05
-1.55174e-05
-3.98173e-05
-1.19815e-05
-4.51368e-05
-7.27851e-06
-5.3285e-05
-6.50669e-05
-4.29748e-05
-1.59605e-05
-3.77357e-05
-2.33122e-05
-3.16826e-05
-2.91373e-05
-2.5339e-05
-3.32982e-05
-1.92747e-05
-3.58761e-05
-1.40013e-05
-3.72483e-05
-9.89241e-06
-3.80417e-05
-7.09252e-06
-3.90644e-05
-5.5473e-06
-4.13567e-05
-4.68483e-06
-4.59943e-05
-3.52528e-06
-5.4439e-05
-6.85848e-05
-2.86433e-05
-2.0219e-05
-2.30559e-05
-2.88981e-05
-1.6689e-05
-3.55003e-05
-1.01601e-05
-3.98239e-05
-4.14014e-06
-4.18912e-05
7.50882e-07
-4.2135e-05
4.05173e-06
-4.13374e-05
5.50373e-06
-4.05104e-05
5.093e-06
-4.09437e-05
3.22147e-06
-4.41152e-05
9.76607e-07
-5.21813e-05
-6.76059e-05
-1.20771e-05
-2.47384e-05
-6.20718e-06
-3.47655e-05
3.17993e-07
-4.20229e-05
6.81834e-06
-4.63201e-05
1.25504e-05
-4.76195e-05
1.68215e-05
-4.64012e-05
1.91362e-05
-4.36481e-05
1.91598e-05
-4.05316e-05
1.67599e-05
-3.85371e-05
1.21008e-05
-3.94525e-05
6.14656e-06
-4.62234e-05
-6.14496e-05
7.07158e-06
-2.96641e-05
1.32661e-05
-4.09581e-05
1.97925e-05
-4.85462e-05
2.59761e-05
-5.25002e-05
3.10918e-05
-5.27313e-05
3.44133e-05
-4.97192e-05
3.55169e-05
-4.47485e-05
3.40607e-05
-3.90717e-05
2.97574e-05
-3.42345e-05
2.2477e-05
-3.21683e-05
1.25194e-05
-3.62535e-05
-4.89309e-05
2.88495e-05
-3.54042e-05
3.55665e-05
-4.76728e-05
4.19307e-05
-5.49072e-05
4.74324e-05
-5.79988e-05
5.14798e-05
-5.6775e-05
5.3413e-05
-5.16499e-05
5.30428e-05
-4.4376e-05
5.01243e-05
-3.61529e-05
4.41989e-05
-2.83061e-05
3.46753e-05
-2.26426e-05
2.07565e-05
-2.23364e-05
-2.81656e-05
5.30161e-05
-4.25649e-05
6.04046e-05
-5.50585e-05
6.63782e-05
-6.08772e-05
7.08272e-05
-6.24443e-05
7.32168e-05
-5.91615e-05
7.3276e-05
-5.17067e-05
7.11894e-05
-4.22878e-05
6.69235e-05
-3.18856e-05
5.99545e-05
-2.13381e-05
4.93778e-05
-1.20652e-05
3.22807e-05
-5.23304e-06
4.10835e-06
7.88909e-05
-5.13255e-05
8.63628e-05
-6.2528e-05
9.15532e-05
-6.60651e-05
9.45717e-05
-6.54602e-05
9.48426e-05
-5.94308e-05
9.2813e-05
-4.96757e-05
8.9021e-05
-3.84953e-05
8.36753e-05
-2.65403e-05
7.63834e-05
-1.40454e-05
6.61697e-05
-1.85293e-06
4.82998e-05
1.26326e-05
5.24111e-05
4.62135e-06
-4.62342e-06
-3.95678e-06
8.58536e-06
-2.30399e-05
1.90838e-05
-4.36087e-05
2.05692e-05
-6.08695e-05
1.72622e-05
-7.5286e-05
1.44143e-05
-8.67743e-05
1.14901e-05
-9.58127e-05
9.03542e-06
-0.000102446
6.63551e-06
-0.000106884
4.43476e-06
-0.000109288
2.40618e-06
5.2718e-07
-0.000109817
-2.08452e-05
1.62221e-05
-3.91709e-05
2.69116e-05
-5.13005e-05
3.1213e-05
-6.03571e-05
2.96251e-05
-6.89215e-05
2.58262e-05
-7.65562e-05
2.20473e-05
-8.31238e-05
1.80578e-05
-8.82028e-05
1.41125e-05
-9.18326e-05
1.02659e-05
-9.40085e-05
6.60904e-06
-9.47706e-05
3.16924e-06
-2.05021e-08
-9.42238e-05
-1.87152e-05
3.49356e-05
-3.40262e-05
4.22215e-05
-4.5124e-05
4.23094e-05
-5.3721e-05
3.82201e-05
-6.15218e-05
3.3626e-05
-6.82365e-05
2.87598e-05
-7.38111e-05
2.36321e-05
-7.81335e-05
1.84332e-05
-8.11302e-05
1.3263e-05
-8.27589e-05
8.23662e-06
-8.30088e-05
3.41992e-06
-1.14197e-06
-8.18876e-05
-1.6525e-05
5.14586e-05
-2.8855e-05
5.4549e-05
-3.86534e-05
5.21058e-05
-4.70629e-05
4.66264e-05
-5.4335e-05
4.08963e-05
-6.04207e-05
3.4843e-05
-6.53401e-05
2.85508e-05
-6.90501e-05
2.21415e-05
-7.14822e-05
1.56952e-05
-7.25579e-05
9.31124e-06
-7.22198e-05
3.08262e-06
-2.89952e-06
-7.04626e-05
-1.40708e-05
6.55266e-05
-2.42496e-05
6.4727e-05
-3.24864e-05
6.03391e-05
-3.96727e-05
5.38113e-05
-4.59321e-05
4.71514e-05
-5.12706e-05
4.01813e-05
-5.56461e-05
3.29219e-05
-5.89313e-05
2.54281e-05
-6.10368e-05
1.77965e-05
-6.18277e-05
1.0105e-05
-6.11738e-05
2.42514e-06
-5.05425e-06
-5.90154e-05
-1.01719e-05
7.56976e-05
-1.84847e-05
7.30365e-05
-2.51082e-05
6.6962e-05
-3.09474e-05
5.9645e-05
-3.61166e-05
5.23209e-05
-4.06588e-05
4.47167e-05
-4.44767e-05
3.67425e-05
-4.74228e-05
2.83672e-05
-4.93151e-05
1.9693e-05
-4.99391e-05
1.07228e-05
-4.90694e-05
1.56085e-06
-7.48851e-06
-4.66389e-05
-6.8655e-06
8.25582e-05
-1.17164e-05
7.78849e-05
-1.64671e-05
7.17083e-05
-2.08226e-05
6.39975e-05
-2.48002e-05
5.62932e-05
-2.84174e-05
4.83328e-05
-3.15616e-05
3.98821e-05
-3.40611e-05
3.08672e-05
-3.56662e-05
2.12948e-05
-3.60952e-05
1.11539e-05
-3.51079e-05
5.72123e-07
-1.00824e-05
-3.25108e-05
-1.82426e-06
8.43755e-05
-4.66545e-06
8.07206e-05
-6.96772e-06
7.40037e-05
-9.43995e-06
6.64645e-05
-1.20244e-05
5.88733e-05
-1.45777e-05
5.08824e-05
-1.68977e-05
4.21993e-05
-1.87641e-05
3.27316e-05
-1.99215e-05
2.24509e-05
-2.0077e-05
1.13092e-05
-1.89281e-05
-5.76053e-07
-1.28344e-05
-1.61749e-05
2.3027e-06
8.20684e-05
3.95608e-06
7.90597e-05
4.18461e-06
7.3772e-05
3.36388e-06
6.72777e-05
2.09702e-06
6.01342e-05
6.3116e-07
5.23432e-05
-7.66173e-07
4.3593e-05
-1.84271e-06
3.38053e-05
-2.36721e-06
2.29737e-05
-2.04588e-06
1.09874e-05
-5.47568e-07
-2.07413e-06
-1.59087e-05
2.52795e-06
7.93879e-06
7.41206e-05
1.24856e-05
7.45091e-05
1.59116e-05
7.03348e-05
1.7052e-05
6.61318e-05
1.70948e-05
6.00854e-05
1.66714e-05
5.27617e-05
1.62064e-05
4.40543e-05
1.60141e-05
3.39944e-05
1.62974e-05
2.26889e-05
1.73691e-05
9.91479e-06
1.95704e-05
-4.2748e-06
-1.97186e-05
2.33815e-05
1.6277e-05
5.78414e-05
2.54305e-05
6.5348e-05
2.95919e-05
6.61738e-05
3.1685e-05
6.40314e-05
3.25653e-05
5.9198e-05
3.29342e-05
5.23871e-05
3.32762e-05
4.37069e-05
3.39663e-05
3.33006e-05
3.51779e-05
2.14746e-05
3.73162e-05
7.77542e-06
4.07408e-05
-7.69951e-06
-2.49429e-05
4.59663e-05
2.35466e-05
3.42922e-05
3.66486e-05
5.22475e-05
4.33509e-05
5.9462e-05
4.63698e-05
6.10084e-05
4.78298e-05
5.77336e-05
4.87826e-05
5.14295e-05
4.97872e-05
4.26984e-05
5.13477e-05
3.17371e-05
5.36441e-05
1.91762e-05
5.73076e-05
4.11121e-06
6.2675e-05
-1.30666e-05
7.00608e-05
-3.23274e-05
-0.000108647
-1.16719e-06
-0.000105928
-2.71942e-06
-0.000101725
-4.20128e-06
-9.60674e-05
-5.65688e-06
-8.89572e-05
-7.10803e-06
-8.03324e-05
-8.62345e-06
-7.01096e-05
-1.02208e-05
-5.81753e-05
-1.19324e-05
-4.43918e-05
-1.37818e-05
-2.87789e-05
-1.56108e-05
-1.21278e-05
-1.66474e-05
-1.21264e-05
-9.24495e-05
-2.94011e-06
-8.95554e-05
-5.61351e-06
-8.56566e-05
-8.09833e-06
-8.08918e-05
-1.04208e-05
-7.53239e-05
-1.2674e-05
-6.89892e-05
-1.49569e-05
-6.18167e-05
-1.73912e-05
-5.36142e-05
-2.01329e-05
-4.41124e-05
-2.32814e-05
-3.28069e-05
-2.69145e-05
-1.90219e-05
-3.04296e-05
-3.11475e-05
-7.9476e-05
-5.35078e-06
-7.59613e-05
-9.12782e-06
-7.15864e-05
-1.2472e-05
-6.65729e-05
-1.54335e-05
-6.11113e-05
-1.81344e-05
-5.52889e-05
-2.07781e-05
-4.90689e-05
-2.361e-05
-4.23005e-05
-2.68997e-05
-3.46749e-05
-3.09053e-05
-2.59852e-05
-3.56024e-05
-1.51721e-05
-4.12413e-05
-4.63192e-05
-6.73955e-05
-8.41656e-06
-6.32173e-05
-1.33058e-05
-5.82117e-05
-1.74761e-05
-5.27004e-05
-2.09442e-05
-4.69863e-05
-2.3847e-05
-4.13142e-05
-2.64491e-05
-3.58129e-05
-2.91097e-05
-3.04639e-05
-3.22471e-05
-2.49629e-05
-3.64048e-05
-1.89247e-05
-4.16393e-05
-1.15317e-05
-4.86337e-05
-5.78479e-05
-5.545e-05
-1.19841e-05
-5.07091e-05
-1.80433e-05
-4.5152e-05
-2.30334e-05
-3.9196e-05
-2.68974e-05
-3.32822e-05
-2.97593e-05
-2.7792e-05
-3.19369e-05
-2.29866e-05
-3.3913e-05
-1.89657e-05
-3.62662e-05
-1.55334e-05
-3.98345e-05
-1.19986e-05
-4.51731e-05
-7.28664e-06
-5.3336e-05
-6.51324e-05
-4.26893e-05
-1.59286e-05
-3.75003e-05
-2.32328e-05
-3.15019e-05
-2.90273e-05
-2.52155e-05
-3.31814e-05
-1.91999e-05
-3.5771e-05
-1.39647e-05
-3.71684e-05
-9.88152e-06
-3.79929e-05
-7.09682e-06
-3.9047e-05
-5.56026e-06
-4.13679e-05
-4.69532e-06
-4.60266e-05
-3.53398e-06
-5.44944e-05
-6.86559e-05
-2.82979e-05
-2.01407e-05
-2.27769e-05
-2.87499e-05
-1.64854e-05
-3.53156e-05
-1.0027e-05
-3.9635e-05
-4.06592e-06
-4.17274e-05
7.82715e-07
-4.20122e-05
4.05676e-06
-4.12624e-05
5.49429e-06
-4.04798e-05
5.0818e-06
-4.0948e-05
3.20827e-06
-4.41517e-05
9.73501e-07
-5.22379e-05
-6.76802e-05
-1.17194e-05
-2.45939e-05
-5.93518e-06
-3.45315e-05
5.01841e-07
-4.17486e-05
6.92269e-06
-4.6052e-05
1.25961e-05
-4.73962e-05
1.68293e-05
-4.62415e-05
1.91252e-05
-4.35541e-05
1.91434e-05
-4.04944e-05
1.67424e-05
-3.85449e-05
1.20909e-05
-3.94877e-05
6.13831e-06
-4.62857e-05
-6.15318e-05
7.36753e-06
-2.94317e-05
1.34611e-05
-4.06222e-05
1.98949e-05
-4.8179e-05
2.60037e-05
-5.21571e-05
3.10742e-05
-5.24632e-05
3.43768e-05
-4.95409e-05
3.54799e-05
-4.46546e-05
3.40319e-05
-3.90444e-05
2.97422e-05
-3.42517e-05
2.24684e-05
-3.22165e-05
1.25173e-05
-3.63199e-05
-4.90176e-05
2.90078e-05
-3.50559e-05
3.56125e-05
-4.72238e-05
4.18926e-05
-5.44562e-05
4.73384e-05
-5.75995e-05
5.13699e-05
-5.64923e-05
5.3316e-05
-5.14848e-05
5.29734e-05
-4.43106e-05
5.00851e-05
-3.61552e-05
4.41838e-05
-2.83512e-05
3.46789e-05
-2.27063e-05
2.07627e-05
-2.24107e-05
-2.82545e-05
5.29888e-05
-4.2076e-05
6.02706e-05
-5.45028e-05
6.61813e-05
-6.03635e-05
7.06037e-05
-6.20193e-05
7.30148e-05
-5.89013e-05
7.31241e-05
-5.15925e-05
7.10946e-05
-4.22803e-05
6.68778e-05
-3.19381e-05
5.99484e-05
-2.14213e-05
4.93946e-05
-1.2157e-05
3.22978e-05
-5.31411e-06
4.04007e-06
7.86871e-05
-5.07002e-05
8.60959e-05
-6.19094e-05
9.1256e-05
-6.55212e-05
9.42865e-05
-6.50485e-05
9.46144e-05
-5.9228e-05
9.26527e-05
-4.96305e-05
8.89272e-05
-3.85546e-05
8.36393e-05
-2.66509e-05
7.63923e-05
-1.41762e-05
6.6208e-05
-1.97414e-06
4.83451e-05
1.2545e-05
5.23765e-05
4.60881e-06
-4.62699e-06
-4.01249e-06
8.61422e-06
-2.31345e-05
1.91194e-05
-4.37242e-05
2.05841e-05
-6.10023e-05
1.72779e-05
-7.54288e-05
1.44194e-05
-8.69182e-05
1.14899e-05
-9.59568e-05
9.03191e-06
-0.000102587
6.63084e-06
-0.000107017
4.42579e-06
-0.000109409
2.39504e-06
5.15171e-07
-0.000109927
-2.0879e-05
1.62477e-05
-3.92209e-05
2.6954e-05
-5.13568e-05
3.12537e-05
-6.04373e-05
2.96612e-05
-6.90186e-05
2.58578e-05
-7.66703e-05
2.20671e-05
-8.32516e-05
1.807e-05
-8.83413e-05
1.41177e-05
-9.19764e-05
1.02659e-05
-9.41556e-05
6.60249e-06
-9.49161e-05
3.157e-06
-3.81953e-08
-9.43637e-05
-1.87427e-05
3.49878e-05
-3.40776e-05
4.22868e-05
-4.51942e-05
4.23687e-05
-5.38131e-05
3.82776e-05
-6.16312e-05
3.36744e-05
-6.83656e-05
2.87984e-05
-7.39585e-05
2.36619e-05
-7.82969e-05
1.84537e-05
-8.13044e-05
1.32733e-05
-8.29383e-05
8.2352e-06
-8.3188e-05
3.40739e-06
-1.16672e-06
-8.20596e-05
-1.65421e-05
5.15273e-05
-2.88978e-05
5.46401e-05
-3.87227e-05
5.21916e-05
-4.7158e-05
4.67101e-05
-5.44564e-05
4.09712e-05
-6.05691e-05
3.49086e-05
-6.55131e-05
2.8605e-05
-6.92436e-05
2.21823e-05
-7.16894e-05
1.5719e-05
-7.27716e-05
9.31634e-06
-7.24347e-05
3.07084e-06
-2.93226e-06
-7.06694e-05
-1.40932e-05
6.56162e-05
-2.42992e-05
6.4842e-05
-3.25622e-05
6.04512e-05
-3.97749e-05
5.39189e-05
-4.60627e-05
4.72561e-05
-5.1435e-05
4.02778e-05
-5.58414e-05
3.30096e-05
-5.91562e-05
2.54951e-05
-6.12776e-05
1.78393e-05
-6.20814e-05
1.01188e-05
-6.14272e-05
2.41627e-06
-5.10047e-06
-5.926e-05
-1.01778e-05
7.57863e-05
-1.8551e-05
7.32096e-05
-2.5188e-05
6.70819e-05
-3.10472e-05
5.97732e-05
-3.62492e-05
5.24526e-05
-4.08229e-05
4.48482e-05
-4.46805e-05
3.68634e-05
-4.76594e-05
2.84722e-05
-4.95858e-05
1.97628e-05
-5.02248e-05
1.07573e-05
-4.93605e-05
1.54962e-06
-7.54887e-06
-4.69114e-05
-6.77619e-06
8.25486e-05
-1.18058e-05
7.82298e-05
-1.65358e-05
7.18046e-05
-2.09123e-05
6.41422e-05
-2.49237e-05
5.64588e-05
-2.85827e-05
4.85014e-05
-3.17657e-05
4.00435e-05
-3.43052e-05
3.10074e-05
-3.59425e-05
2.13992e-05
-3.6396e-05
1.12078e-05
-3.54101e-05
5.6404e-07
-1.01633e-05
-3.27975e-05
-2.09957e-06
8.46413e-05
-4.41619e-06
8.05375e-05
-6.93286e-06
7.43141e-05
-9.49523e-06
6.66973e-05
-1.21297e-05
5.90874e-05
-1.47263e-05
5.10929e-05
-1.70877e-05
4.24007e-05
-1.89931e-05
3.29096e-05
-2.01837e-05
2.25872e-05
-2.03608e-05
1.13831e-05
-1.92145e-05
-5.83713e-07
-1.29376e-05
-1.6441e-05
2.5422e-06
8.20851e-05
3.70544e-06
7.93647e-05
4.11057e-06
7.39013e-05
3.30601e-06
6.74944e-05
2.01174e-06
6.03753e-05
5.09568e-07
5.25893e-05
-9.24655e-07
4.38302e-05
-2.03477e-06
3.40158e-05
-2.58687e-06
2.31362e-05
-2.28087e-06
1.10747e-05
-7.79643e-07
-2.08691e-06
-1.60415e-05
2.32293e-06
7.87177e-06
7.42082e-05
1.25973e-05
7.46332e-05
1.59245e-05
7.05674e-05
1.70306e-05
6.63832e-05
1.70425e-05
6.03575e-05
1.65871e-05
5.30402e-05
1.60918e-05
4.43209e-05
1.58747e-05
3.42293e-05
1.61402e-05
2.28673e-05
1.72083e-05
1.00042e-05
1.94248e-05
-4.30567e-06
-1.9896e-05
2.32781e-05
1.6323e-05
5.78756e-05
2.54815e-05
6.54692e-05
2.9634e-05
6.64107e-05
3.17012e-05
6.4311e-05
3.25511e-05
5.95018e-05
3.2891e-05
5.26948e-05
3.32091e-05
4.39974e-05
3.38828e-05
3.35508e-05
3.50879e-05
2.16582e-05
3.72378e-05
7.85082e-06
4.0698e-05
-7.76839e-06
-2.51902e-05
4.59903e-05
2.35859e-05
3.42891e-05
3.67179e-05
5.23368e-05
4.34366e-05
5.96915e-05
4.64257e-05
6.13194e-05
4.78522e-05
5.8073e-05
4.87768e-05
5.17662e-05
4.97605e-05
4.30102e-05
5.1311e-05
3.19966e-05
5.36116e-05
1.93547e-05
5.7307e-05
4.15286e-06
6.2736e-05
-1.31993e-05
7.02128e-05
-3.2668e-05
-0.000108744
-1.17962e-06
-0.000106011
-2.7329e-06
-0.000101792
-4.21478e-06
-9.61211e-05
-5.66956e-06
-8.89978e-05
-7.1194e-06
-8.03619e-05
-8.63318e-06
-7.01297e-05
-1.02284e-05
-5.81881e-05
-1.19379e-05
-4.44005e-05
-1.37842e-05
-2.87863e-05
-1.56101e-05
-1.21334e-05
-1.66447e-05
-1.21305e-05
-9.25785e-05
-2.96254e-06
-8.9671e-05
-5.63984e-06
-8.57563e-05
-8.12647e-06
-8.09754e-05
-1.04486e-05
-7.53916e-05
-1.26999e-05
-6.9043e-05
-1.49792e-05
-6.18583e-05
-1.74095e-05
-5.36459e-05
-2.01466e-05
-4.41345e-05
-2.32915e-05
-3.28198e-05
-2.69209e-05
-1.9024e-05
-3.0435e-05
-3.11531e-05
-7.96343e-05
-5.38657e-06
-7.61015e-05
-9.17185e-06
-7.17061e-05
-1.25203e-05
-6.66713e-05
-1.54819e-05
-6.119e-05
-1.81793e-05
-5.53501e-05
-2.08171e-05
-4.91151e-05
-2.3642e-05
-4.23349e-05
-2.69242e-05
-3.46998e-05
-3.09238e-05
-2.60027e-05
-3.56154e-05
-1.51808e-05
-4.12544e-05
-4.63337e-05
-6.75854e-05
-8.47009e-06
-6.33831e-05
-1.33738e-05
-5.83499e-05
-1.75526e-05
-5.28097e-05
-2.1021e-05
-4.70689e-05
-2.39188e-05
-4.13731e-05
-2.65113e-05
-3.58529e-05
-2.91605e-05
-3.04903e-05
-3.22847e-05
-2.4981e-05
-3.64316e-05
-1.89346e-05
-4.1661e-05
-1.15354e-05
-4.86535e-05
-5.78672e-05
-5.56691e-05
-1.20607e-05
-5.08974e-05
-1.81457e-05
-4.53019e-05
-2.31471e-05
-3.93092e-05
-2.7013e-05
-3.33608e-05
-2.98657e-05
-2.78423e-05
-3.20283e-05
-2.30145e-05
-3.39865e-05
-1.89774e-05
-3.63206e-05
-1.5535e-05
-3.98729e-05
-1.19949e-05
-4.51994e-05
-7.28596e-06
-5.33572e-05
-6.51516e-05
-4.29342e-05
-1.60392e-05
-3.7701e-05
-2.33774e-05
-3.1657e-05
-2.91908e-05
-2.53232e-05
-3.33445e-05
-1.92674e-05
-3.59196e-05
-1.40003e-05
-3.72926e-05
-9.89473e-06
-3.80896e-05
-7.09573e-06
-3.9117e-05
-5.54954e-06
-4.14142e-05
-4.68649e-06
-4.60584e-05
-3.52646e-06
-5.4513e-05
-6.86716e-05
-2.85465e-05
-2.0289e-05
-2.29758e-05
-2.8948e-05
-1.66275e-05
-3.55367e-05
-1.0116e-05
-3.9854e-05
-4.11014e-06
-4.19219e-05
7.70839e-07
-4.21704e-05
4.06559e-06
-4.13803e-05
5.5146e-06
-4.05611e-05
5.10268e-06
-4.10009e-05
3.2297e-06
-4.41792e-05
9.8288e-07
-5.2255e-05
-6.76869e-05
-1.1943e-05
-2.47874e-05
-6.10135e-06
-3.47889e-05
3.95997e-07
-4.2033e-05
6.8729e-06
-4.63283e-05
1.25889e-05
-4.76355e-05
1.68503e-05
-4.64282e-05
1.91602e-05
-4.36874e-05
1.91819e-05
-4.05812e-05
1.67806e-05
-3.85939e-05
1.21189e-05
-3.95145e-05
6.1589e-06
-4.62922e-05
-6.15191e-05
7.21139e-06
-2.96763e-05
1.33659e-05
-4.09432e-05
1.98582e-05
-4.8524e-05
2.60171e-05
-5.24853e-05
3.11206e-05
-5.27366e-05
3.44388e-05
-4.9744e-05
3.55442e-05
-4.47907e-05
3.40911e-05
-3.91251e-05
2.97892e-05
-3.42931e-05
2.25062e-05
-3.22284e-05
1.25383e-05
-3.63128e-05
-4.89816e-05
2.89634e-05
-3.53623e-05
3.56307e-05
-4.76102e-05
4.1959e-05
-5.4851e-05
4.74394e-05
-5.79642e-05
5.14833e-05
-5.67783e-05
5.34242e-05
-5.16835e-05
5.3067e-05
-4.44321e-05
5.016e-05
-3.62183e-05
4.42419e-05
-2.83725e-05
3.47185e-05
-2.27031e-05
2.07863e-05
-2.23824e-05
-2.81872e-05
5.30857e-05
-4.24583e-05
6.04254e-05
-5.49496e-05
6.63668e-05
-6.07911e-05
7.07996e-05
-6.23954e-05
7.31939e-05
-5.91709e-05
7.32725e-05
-5.17607e-05
7.12093e-05
-4.23681e-05
6.69625e-05
-3.19706e-05
6.00074e-05
-2.14186e-05
4.94367e-05
-1.2132e-05
3.23279e-05
-5.26783e-06
4.13384e-06
7.89143e-05
-5.11602e-05
8.63579e-05
-6.23927e-05
9.15301e-05
-6.59627e-05
9.45418e-05
-6.5406e-05
9.48242e-05
-5.94527e-05
9.28145e-05
-4.97504e-05
8.90446e-05
-3.85982e-05
8.37195e-05
-2.66463e-05
7.64444e-05
-1.41432e-05
6.62409e-05
-1.92972e-06
4.83605e-05
1.26081e-05
5.24971e-05
4.67344e-06
-4.6773e-06
-3.75303e-06
8.43234e-06
-2.27637e-05
1.90109e-05
-4.33907e-05
2.06268e-05
-6.06865e-05
1.7297e-05
-7.51468e-05
1.44575e-05
-8.66669e-05
1.15219e-05
-9.57372e-05
9.06677e-06
-0.000102401
6.66598e-06
-0.000106867
4.46282e-06
-0.000109296
2.43058e-06
5.49104e-07
-0.000109847
-2.0733e-05
1.60555e-05
-3.9099e-05
2.67986e-05
-5.12749e-05
3.1186e-05
-6.03086e-05
2.96594e-05
-6.88681e-05
2.5856e-05
-7.6501e-05
2.20884e-05
-8.3077e-05
1.80978e-05
-8.81725e-05
1.416e-05
-9.18204e-05
1.03143e-05
-9.40166e-05
6.65712e-06
-9.47989e-05
3.21377e-06
1.88256e-08
-9.42699e-05
-1.86889e-05
3.47423e-05
-3.40073e-05
4.21155e-05
-4.51052e-05
4.22823e-05
-5.36836e-05
3.82356e-05
-6.14769e-05
3.3648e-05
-6.81901e-05
2.87992e-05
-7.37746e-05
2.36819e-05
-7.81117e-05
1.8495e-05
-8.11286e-05
1.33314e-05
-8.27794e-05
8.30649e-06
-8.30524e-05
3.48749e-06
-1.08192e-06
-8.19522e-05
-1.64998e-05
5.12398e-05
-2.88205e-05
5.44335e-05
-3.86075e-05
5.2067e-05
-4.70021e-05
4.66267e-05
-5.42735e-05
4.09173e-05
-6.03662e-05
3.48891e-05
-6.53023e-05
2.8617e-05
-6.90337e-05
2.22245e-05
-7.14907e-05
1.57883e-05
-7.25936e-05
9.40816e-06
-7.22845e-05
3.17898e-06
-2.81544e-06
-7.05516e-05
-1.40315e-05
6.52682e-05
-2.41966e-05
6.45974e-05
-3.24178e-05
6.02845e-05
-3.95941e-05
5.38013e-05
-4.5855e-05
4.71736e-05
-5.12047e-05
4.02382e-05
-5.56024e-05
3.30099e-05
-5.8917e-05
2.55402e-05
-6.10524e-05
1.79191e-05
-6.18781e-05
1.02366e-05
-6.12597e-05
2.55646e-06
-4.94145e-06
-5.91301e-05
-1.01417e-05
7.54085e-05
-1.84204e-05
7.28724e-05
-2.50231e-05
6.6886e-05
-3.08544e-05
5.96268e-05
-3.60264e-05
5.23456e-05
-4.05822e-05
4.47868e-05
-4.4425e-05
3.68551e-05
-4.74054e-05
2.85131e-05
-4.93346e-05
1.98526e-05
-4.99992e-05
1.08943e-05
-4.9169e-05
1.7318e-06
-7.34338e-06
-4.67716e-05
-6.83857e-06
8.22416e-05
-1.16535e-05
7.76844e-05
-1.63759e-05
7.16037e-05
-2.07192e-05
6.39667e-05
-2.4698e-05
5.63186e-05
-2.83275e-05
4.84149e-05
-3.14941e-05
4.00167e-05
-3.40243e-05
3.10436e-05
-3.56731e-05
2.14974e-05
-3.61481e-05
1.13712e-05
-3.52024e-05
7.84331e-07
-9.90157e-06
-3.26412e-05
-1.79214e-06
8.40263e-05
-4.59854e-06
8.04849e-05
-6.87229e-06
7.38701e-05
-9.33015e-06
6.64189e-05
-1.19135e-05
5.88972e-05
-1.44765e-05
5.09739e-05
-1.6816e-05
4.23531e-05
-1.8711e-05
3.29363e-05
-1.99062e-05
2.26911e-05
-2.0103e-05
1.15675e-05
-1.89947e-05
-3.2356e-07
-1.26176e-05
-1.62778e-05
2.32645e-06
8.1695e-05
4.00883e-06
7.87945e-05
4.27454e-06
7.36008e-05
3.47309e-06
6.72124e-05
2.2107e-06
6.01533e-05
7.38981e-07
5.24403e-05
-6.72889e-07
4.3761e-05
-1.77151e-06
3.40316e-05
-2.32456e-06
2.32421e-05
-2.03559e-06
1.12776e-05
-5.71093e-07
-1.78816e-06
-1.56604e-05
2.47266e-06
7.95745e-06
7.37278e-05
1.25295e-05
7.42182e-05
1.59848e-05
7.01337e-05
1.7149e-05
6.6042e-05
1.7201e-05
6.00949e-05
1.6777e-05
5.2859e-05
1.63036e-05
4.42304e-05
1.60969e-05
3.42348e-05
1.63612e-05
2.2976e-05
1.74104e-05
1.02272e-05
1.95875e-05
-3.96496e-06
-1.94486e-05
2.33766e-05
1.6208e-05
5.75169e-05
2.54114e-05
6.50065e-05
2.96336e-05
6.59115e-05
3.17566e-05
6.39112e-05
3.26503e-05
5.91936e-05
3.30246e-05
5.24785e-05
3.33642e-05
4.38851e-05
3.40462e-05
3.35486e-05
3.52454e-05
2.17736e-05
3.73677e-05
8.10335e-06
4.07765e-05
-7.37417e-06
-2.46652e-05
4.59939e-05
2.34689e-05
3.40445e-05
3.65714e-05
5.1905e-05
4.3329e-05
5.91435e-05
4.63938e-05
6.08418e-05
4.78755e-05
5.7707e-05
4.88416e-05
5.15071e-05
4.98482e-05
4.28741e-05
5.1403e-05
3.19905e-05
5.36887e-05
1.94855e-05
5.73379e-05
4.45305e-06
6.26971e-05
-1.27335e-05
7.0094e-05
-3.20611e-05
-0.000108694
-1.15099e-06
-0.000105986
-2.7087e-06
-0.00010179
-4.19423e-06
-9.61349e-05
-5.65438e-06
-8.9022e-05
-7.11075e-06
-8.03922e-05
-8.62867e-06
-7.01608e-05
-1.02295e-05
-5.82164e-05
-1.19427e-05
-4.44214e-05
-1.37934e-05
-2.87972e-05
-1.56224e-05
-1.21357e-05
-1.66581e-05
-1.21344e-05
-9.25101e-05
-2.90945e-06
-8.96274e-05
-5.59179e-06
-8.5734e-05
-8.08592e-06
-8.097e-05
-1.04177e-05
-7.54001e-05
-1.26788e-05
-6.90589e-05
-1.49689e-05
-6.18778e-05
-1.74087e-05
-5.36644e-05
-2.01543e-05
-4.41507e-05
-2.3305e-05
-3.28325e-05
-2.69388e-05
-1.90346e-05
-3.04534e-05
-3.11684e-05
-7.95569e-05
-5.30391e-06
-7.60522e-05
-9.09637e-06
-7.16803e-05
-1.24567e-05
-6.66641e-05
-1.54333e-05
-6.11947e-05
-1.81471e-05
-5.53618e-05
-2.08008e-05
-4.91294e-05
-2.36399e-05
-4.23483e-05
-2.69341e-05
-3.47097e-05
-3.09421e-05
-2.6008e-05
-3.5639e-05
-1.51833e-05
-4.12769e-05
-4.63513e-05
-6.75017e-05
-8.35262e-06
-6.33321e-05
-1.32661e-05
-5.83261e-05
-1.74613e-05
-5.28068e-05
-2.09521e-05
-4.70795e-05
-2.38731e-05
-4.13912e-05
-2.64883e-05
-3.58731e-05
-2.91566e-05
-3.05089e-05
-3.22969e-05
-2.49945e-05
-3.64551e-05
-1.89433e-05
-4.16891e-05
-1.15404e-05
-4.86794e-05
-5.78892e-05
-5.55837e-05
-1.19016e-05
-5.08498e-05
-1.79965e-05
-4.52888e-05
-2.30229e-05
-3.93189e-05
-2.6919e-05
-3.33852e-05
-2.98058e-05
-2.78721e-05
-3.19988e-05
-2.30447e-05
-3.39823e-05
-1.90044e-05
-3.63354e-05
-1.55569e-05
-3.99006e-05
-1.20108e-05
-4.52343e-05
-7.2924e-06
-5.33894e-05
-6.51799e-05
-4.28428e-05
-1.58251e-05
-3.76604e-05
-2.318e-05
-3.16544e-05
-2.90242e-05
-2.53493e-05
-3.32223e-05
-1.93068e-05
-3.58441e-05
-1.40431e-05
-3.72593e-05
-9.93363e-06
-3.80884e-05
-7.12779e-06
-3.9138e-05
-5.5755e-06
-4.14499e-05
-4.70129e-06
-4.60986e-05
-3.53372e-06
-5.45548e-05
-6.87044e-05
-2.84515e-05
-2.00144e-05
-2.29366e-05
-2.8691e-05
-1.66354e-05
-3.53223e-05
-1.01551e-05
-3.96977e-05
-4.1633e-06
-4.18314e-05
7.17885e-07
-4.21357e-05
4.02012e-06
-4.13864e-05
5.47889e-06
-4.05923e-05
5.07942e-06
-4.10439e-05
3.21216e-06
-4.42303e-05
9.77811e-07
-5.23013e-05
-6.77251e-05
-1.18458e-05
-2.44443e-05
-6.066e-06
-3.44684e-05
3.81787e-07
-4.17662e-05
6.82383e-06
-4.61359e-05
1.25286e-05
-4.75316e-05
1.67936e-05
-4.6397e-05
1.91156e-05
-4.37045e-05
1.91516e-05
-4.06251e-05
1.67594e-05
-3.865e-05
1.21087e-05
-3.95687e-05
6.15231e-06
-4.63462e-05
-6.15648e-05
7.29229e-06
-2.92624e-05
1.33879e-05
-4.05611e-05
1.98359e-05
-4.82108e-05
2.5962e-05
-5.22582e-05
3.10606e-05
-5.26268e-05
3.43887e-05
-4.9722e-05
3.55099e-05
-4.48233e-05
3.40718e-05
-3.91851e-05
2.97833e-05
-3.43587e-05
2.25037e-05
-3.22918e-05
1.25386e-05
-3.63695e-05
-4.90296e-05
2.89934e-05
-3.48773e-05
3.56164e-05
-4.71811e-05
4.19208e-05
-5.45122e-05
4.73814e-05
-5.77154e-05
5.14335e-05
-5.66766e-05
5.33928e-05
-5.16792e-05
5.30534e-05
-4.44828e-05
5.01622e-05
-3.62933e-05
4.4253e-05
-2.84504e-05
3.47342e-05
-2.27693e-05
2.07971e-05
-2.24391e-05
-2.82335e-05
5.30251e-05
-4.19063e-05
6.03497e-05
-5.45028e-05
6.62964e-05
-6.04554e-05
7.07417e-05
-6.21581e-05
7.31677e-05
-5.91004e-05
7.32729e-05
-5.1783e-05
7.12275e-05
-4.24368e-05
6.69921e-05
-3.20579e-05
6.0043e-05
-2.15013e-05
4.94704e-05
-1.22007e-05
3.23505e-05
-5.3203e-06
4.11108e-06
7.87543e-05
-5.05646e-05
8.62308e-05
-6.19772e-05
9.14347e-05
-6.5657e-05
9.44948e-05
-6.52169e-05
9.48326e-05
-5.9437e-05
9.28556e-05
-4.98059e-05
8.91021e-05
-3.86834e-05
8.37829e-05
-2.67397e-05
7.65068e-05
-1.4227e-05
6.62981e-05
-1.99348e-06
4.84057e-05
1.25672e-05
5.25122e-05
6.31496e-05
4.99488e-05
-7.91198e-05
6.00493e-05
5.5188e-05
6.06877e-05
5.89381e-05
6.17808e-05
6.02621e-05
6.29051e-05
5.70849e-05
6.40182e-05
5.0855e-05
6.54635e-05
4.18164e-05
6.78809e-05
2.98612e-05
7.15503e-05
1.59381e-05
7.74192e-05
-1.54523e-06
8.54146e-05
-2.11474e-05
-4.24042e-05
9.50521e-05
9.06752e-05
5.52535e-05
-9.59805e-05
8.51867e-05
6.06775e-05
8.10993e-05
6.30262e-05
7.89864e-05
6.23753e-05
7.84067e-05
5.76645e-05
7.88681e-05
5.03927e-05
8.06405e-05
4.0043e-05
8.40651e-05
2.64355e-05
8.96515e-05
1.03506e-05
9.82929e-05
-1.01874e-05
0.000108659
-3.15139e-05
-5.30692e-05
0.000119324
0.000104349
5.75423e-05
-0.000106636
0.000101355
6.36736e-05
9.82177e-05
6.61651e-05
9.57417e-05
6.48526e-05
9.423e-05
5.91765e-05
9.39097e-05
5.07126e-05
9.56669e-05
3.82847e-05
0.00010032
2.17807e-05
0.000108984
1.68473e-06
0.000120597
-2.18012e-05
0.000131996
-4.29138e-05
-6.27306e-05
0.000141657
0.000112293
-0.000113726
5.89757e-05
0.000110683
6.52846e-05
0.000109004
6.7846e-05