/*--------------------------------*- C++ -*----------------------------------*\
| =========                 |                                                 |
| \\      /  F ield         | OpenFOAM: The Open Source CFD Toolbox           |
|  \\    /   O peration     | Version:  v1912                                 |
|   \\  /    A nd           | Website:  www.openfoam.com                      |
|    \\/     M anipulation  |                                                 |
\*---------------------------------------------------------------------------*/
FoamFile
{
    version     2.0;
    format      ascii;
    class       volVectorField;
    location    "50";
    object      U;
}
// * * * * * * * * * * * * * * * * * * * * * * * * * * * * * * * * * * * * * //

dimensions      [0 1 -1 0 0 0 0];


internalField   nonuniform List<vector> 
3072
(
(-0.151473 2.37171 0)
(0.40295 2.09274 0)
(1.6113 2.21984 2.65022e-19)
(2.3109 3.17652 5.47563e-19)
(2.57198 3.705 -1.22584e-18)
(2.95787 4.20675 7.03516e-19)
(3.31843 4.50856 6.26334e-19)
(3.71548 4.71294 3.70163e-18)
(4.0931 4.77036 -5.85888e-18)
(4.44516 4.73521 2.9554e-18)
(4.74989 4.60176 -6.90783e-19)
(5.00143 4.39722 7.62362e-20)
(0.762194 3.19595 -1.65774e-19)
(1.69103 3.52362 -4.06122e-19)
(2.33148 4.00421 2.2715e-19)
(2.5908 4.23025 0)
(2.68434 4.48194 6.03522e-19)
(2.85066 4.70161 -8.26377e-19)
(3.03911 4.86731 0)
(3.26593 4.97438 0)
(3.49379 5.01373 0)
(3.72511 4.98394 8.51693e-19)
(3.94513 4.88708 3.64259e-19)
(4.14526 4.72759 5.20218e-19)
(1.4919 3.14931 9.317e-20)
(2.41507 3.61836 0)
(2.86201 3.95495 0)
(3.01988 4.15071 -1.24306e-18)
(3.16016 4.32797 7.30034e-19)
(3.319 4.4703 -8.43168e-19)
(3.47298 4.57531 1.0164e-18)
(3.63077 4.63831 0)
(3.7833 4.65491 0)
(3.92848 4.62145 -1.79124e-19)
(4.05882 4.53826 -1.90903e-19)
(4.16687 4.40749 8.89167e-19)
(2.46692 3.20209 -3.38395e-19)
(2.99119 3.7109 -6.63914e-19)
(3.22481 3.90497 5.53742e-19)
(3.30765 4.09227 -6.18611e-19)
(3.39161 4.24717 2.06396e-18)
(3.47705 4.37255 -1.87617e-18)
(3.56309 4.46634 -8.66005e-19)
(3.65242 4.52658 -2.07415e-18)
(3.73974 4.54995 -1.33934e-20)
(3.82148 4.53385 1.13063e-18)
(3.89098 4.4748 1.46294e-18)
(3.9408 4.37264 -1.16314e-18)
(2.99783 3.34595 0)
(3.33038 3.81566 2.67332e-19)
(3.46004 3.90257 -6.59835e-19)
(3.48895 4.04083 1.22522e-18)
(3.52932 4.14784 1.44671e-19)
(3.57421 4.23973 8.82798e-19)
(3.62082 4.31315 7.78287e-19)
(3.66769 4.36791 6.70008e-19)
(3.7084 4.39555 -1.41106e-18)
(3.74316 4.39553 1.40508e-18)
(3.76284 4.36101 -2.19302e-18)
(3.76001 4.2909 3.18793e-18)
(3.37986 3.42325 -2.98227e-19)
(3.55753 3.87622 2.39927e-19)
(3.59061 3.86933 1.22818e-18)
(3.58401 3.95493 0)
(3.59224 4.0123 -2.50204e-18)
(3.60535 4.06966 2.40395e-18)
(3.61757 4.12332 0)
(3.62651 4.17328 -1.80822e-18)
(3.62974 4.20849 1.69398e-18)
(3.62165 4.22881 0)
(3.59177 4.22579 7.51573e-20)
(3.53998 4.19222 2.07764e-18)
(3.46947 3.54876 0)
(3.5941 3.91639 -9.14918e-19)
(3.61272 3.81036 1.01554e-18)
(3.59351 3.83416 0)
(3.57911 3.83917 -1.50383e-18)
(3.56892 3.85854 3.14908e-19)
(3.55426 3.88712 2.42662e-18)
(3.53203 3.92437 2.25846e-18)
(3.4985 3.96416 -2.16306e-18)
(3.4473 4.00169 2.23022e-18)
(3.37268 4.0295 -2.02514e-18)
(3.27459 4.03617 -6.33748e-18)
(3.43733 3.64422 0)
(3.56087 3.96852 5.97744e-19)
(3.55863 3.73495 -1.52309e-18)
(3.52414 3.68312 2.00411e-18)
(3.49656 3.62911 0)
(3.46957 3.60468 -2.84505e-18)
(3.43204 3.60284 2.76009e-18)
(3.38022 3.62202 -3.66945e-20)
(3.31054 3.65795 -4.9626e-18)
(3.21748 3.70714 -2.39631e-18)
(3.09788 3.76284 -1.6813e-19)
(2.95149 3.8107 4.95049e-18)
(3.227 3.74603 0)
(3.39667 4.01615 -1.38157e-18)
(3.4046 3.61351 -2.42357e-18)
(3.38182 3.4888 -2.03589e-18)
(3.35141 3.38092 4.32678e-18)
(3.3131 3.31401 0)
(3.25507 3.28038 0)
(3.17415 3.27751 0)
(3.0682 3.30282 0)
(2.93253 3.35569 2.60855e-18)
(2.76557 3.4318 -2.7742e-18)
(2.5657 3.51607 2.76226e-18)
(2.8989 3.82969 0)
(3.09229 4.0547 1.25953e-18)
(3.14605 3.49399 -4.32043e-19)
(3.17553 3.26935 3.02642e-18)
(3.15763 3.10901 2.98102e-18)
(3.11315 3.00254 -4.30368e-18)
(3.03605 2.93969 0)
(2.9256 2.91453 -2.10128e-19)
(2.78274 2.92542 -9.86627e-18)
(2.60189 2.97477 0)
(2.38234 3.06077 6.43749e-18)
(2.11912 3.16941 -3.32222e-18)
(2.42466 3.89833 0)
(2.78974 3.84275 2.08282e-18)
(2.84603 3.28768 6.48188e-18)
(2.91964 3.00558 -6.01414e-18)
(2.92908 2.81977 -8.24578e-18)
(2.88598 2.68723 1.20608e-17)
(2.79251 2.60342 -2.68675e-19)
(2.65265 2.56036 -4.53766e-18)
(2.47271 2.5568 3.27874e-18)
(2.24284 2.59739 -7.39816e-18)
(1.96207 2.68005 -1.05003e-17)
(1.61823 2.79375 1.1522e-17)
(1.29093 3.89804 -1.73376e-18)
(2.16512 3.8366 -1.11442e-17)
(2.52611 3.07455 2.27246e-18)
(2.66775 2.74197 0)
(2.69781 2.53467 0)
(2.65435 2.38687 4.65691e-19)
(2.54579 2.29091 1.54145e-17)
(2.37533 2.23527 8.8369e-18)
(2.15604 2.21794 0)
(1.86465 2.24499 7.76274e-18)
(1.49895 2.31262 0)
(1.04129 2.41659 5.30698e-19)
(5.18803 4.1322 3.05417e-18)
(5.31749 3.81551 -1.60202e-18)
(5.37725 3.46535 2.57535e-19)
(5.36367 3.09519 -4.64709e-19)
(5.27201 2.7196 -3.57407e-19)
(5.10003 2.34886 0)
(4.84385 1.99437 0)
(4.50441 1.66819 2.10591e-18)
(4.07801 1.37552 -2.53151e-18)
(3.52843 1.08906 0)
(2.96852 0.74981 0)
(2.67437 0.0432292 -9.53056e-21)
(4.31878 4.51111 1.33254e-20)
(4.45271 4.25438 0)
(4.54053 3.96775 -7.59807e-19)
(4.58198 3.66417 3.35779e-19)
(4.57463 3.35493 3.38343e-19)
(4.51814 3.05304 3.31737e-18)
(4.41147 2.76961 -5.87837e-18)
(4.25368 2.51697 1.14491e-18)
(4.03957 2.30754 0)
(3.68446 2.13855 0)
(3.32137 2.02597 0)
(3.27935 1.73397 1.4463e-18)
(4.24694 4.23267 6.62955e-19)
(4.29689 4.01849 -1.67073e-18)
(4.31656 3.77835 5.71527e-19)
(4.30673 3.52382 1.79391e-18)
(4.26869 3.26846 -1.8506e-18)
(4.20234 3.02832 0)
(4.10601 2.81768 0)
(3.97853 2.65176 -9.20555e-20)
(3.82117 2.54394 1.35681e-18)
(3.58774 2.49285 0)
(3.32408 2.49828 0)
(3.36138 2.44609 -9.5292e-19)
(3.96933 4.22763 9.37903e-20)
(3.97581 4.04351 2.00115e-18)
(3.96195 3.82824 1.78646e-18)
(3.93005 3.59355 -1.79073e-18)
(3.88321 3.35451 0)
(3.82454 3.12849 1.30229e-18)
(3.75606 2.93401 0)
(3.68035 2.78906 2.57048e-18)
(3.59911 2.71079 -1.01842e-18)
(3.49573 2.69577 0)
(3.31859 2.77842 -6.23282e-19)
(3.51065 2.96233 1.12001e-18)
(3.73816 4.17935 -1.45564e-18)
(3.70065 4.02595 0)
(3.65213 3.83547 0)
(3.59836 3.61727 0)
(3.54478 3.38569 0)
(3.49692 3.1595 -2.53292e-18)
(3.4593 2.9598 -5.9567e-20)
(3.43409 2.80711 -1.3193e-18)
(3.42423 2.73513 0)
(3.42202 2.7449 -1.21446e-18)
(3.33359 2.87307 7.37995e-19)
(3.65168 3.15919 -3.20899e-19)
(3.47141 4.11862 -2.94921e-20)
(3.39406 3.99884 -4.16949e-18)
(3.31681 3.83368 2.315e-18)
(3.24795 3.6299 1.88074e-19)
(3.19565 3.40006 2.25407e-19)
(3.16643 3.16351 4.04117e-18)
(3.16516 2.94384 4.72746e-21)
(3.19426 2.76708 -4.71108e-18)
(3.25447 2.66574 -1.91538e-18)
(3.3417 2.6699 1.11398e-18)
(3.38309 2.8189 -1.62001e-18)
(3.78348 3.19225 -8.70402e-19)
(3.16007 4.00543 6.61047e-18)
(3.04392 3.92364 2.43706e-18)
(2.94111 3.78707 0)
(2.86228 3.59968 0)
(2.8176 3.37084 2.18984e-19)
(2.81393 3.11961 -2.82827e-18)
(2.85479 2.87175 4.72803e-18)
(2.94196 2.65727 -5.5173e-20)
(3.07593 2.51359 1.70828e-18)
(3.25725 2.48177 0)
(3.41514 2.61832 -2.35202e-19)
(3.8865 3.02691 -9.87695e-20)
(2.78751 3.82589 -2.48488e-18)
(2.63077 3.78507 -2.59224e-18)
(2.50485 3.68001 2.9479e-18)
(2.42156 3.51247 -3.0793e-18)
(2.39206 3.28723 -1.97299e-19)
(2.42275 3.02272 6.33224e-18)
(2.51319 2.74536 -3.09465e-18)
(2.66302 2.48752 1.74225e-18)
(2.87152 2.29054 0)
(3.14636 2.20466 1.138e-18)
(3.42437 2.30949 8.3376e-19)
(3.95579 2.70637 -1.32519e-18)
(2.34395 3.57448 3.08761e-18)
(2.14139 3.57222 -3.02509e-18)
(1.99477 3.49803 -3.18747e-18)
(1.91444 3.3537 -7.02684e-18)
(1.91023 3.13671 6.86927e-18)
(1.98641 2.86346 -6.68395e-18)
(2.13476 2.56137 0)
(2.35002 2.26108 -1.68662e-18)
(2.63047 2.0048 0)
(2.99466 1.84845 0)
(3.38274 1.88218 0)
(3.97037 2.19169 7.04548e-19)
(1.82542 3.25869 3.35953e-18)
(1.56849 3.28441 -7.66766e-18)
(1.40502 3.23356 8.03508e-18)
(1.33911 3.11313 7.86953e-18)
(1.37357 2.91117 3.78752e-18)
(1.51007 2.63715 0)
(1.72588 2.32036 0)
(2.00682 1.98638 3.71725e-18)
(2.34947 1.67178 0)
(2.78843 1.4315 -1.15565e-18)
(3.26438 1.35446 8.29302e-19)
(3.8966 1.4421 -2.00031e-18)
(1.23177 2.89529 -8.4276e-18)
(0.913469 2.9357 8.36883e-18)
(0.746732 2.89235 -8.7058e-18)
(0.712082 2.79267 -2.154e-17)
(0.800294 2.61399 -9.11966e-20)
(1.01586 2.34759 1.35769e-19)
(1.30656 2.02987 -4.00762e-18)
(1.64939 1.6775 -3.75008e-18)
(2.03744 1.31422 0)
(2.51806 0.987997 3.26485e-18)
(3.00371 0.740723 9.85483e-19)
(3.67889 0.574147 -3.06819e-18)
(0.548689 2.51829 -4.34554e-19)
(0.202791 2.55808 0)
(0.0781027 2.50931 0)
(0.087767 2.4276 3.50507e-18)
(0.253893 2.26039 1.1657e-17)
(0.556663 2.009 -4.12126e-18)
(0.915897 1.70573 1.32803e-20)
(1.30547 1.35538 -1.89186e-18)
(1.71602 0.963938 -1.85082e-18)
(2.1876 0.566795 -2.01998e-18)
(2.66109 0.118847 0)
(3.40778 -0.904945 2.22629e-18)
(2.38494 0.178169 1.79388e-20)
(2.07988 -0.426611 0)
(2.25358 -1.64442 -2.67796e-19)
(3.20492 -2.29912 0)
(3.7281 -2.57564 -8.46907e-19)
(4.22443 -2.9551 6.91605e-19)
(4.52819 -3.32008 0)
(4.72157 -3.72003 2.99521e-18)
(4.78078 -4.09804 -5.09573e-18)
(4.74202 -4.44907 3.66724e-18)
(4.60832 -4.75432 -4.30543e-20)
(4.40213 -5.00523 -7.88631e-20)
(3.20245 -0.779985 -2.95712e-19)
(3.5175 -1.69772 -2.34204e-19)
(4.00595 -2.32401 4.36209e-19)
(4.23234 -2.57738 0)
(4.48641 -2.67618 -6.23288e-19)
(4.70675 -2.84433 5.61286e-19)
(4.8716 -3.03745 0)
(4.9802 -3.26204 3.04749e-19)
(5.01855 -3.49184 -4.55985e-19)
(4.98792 -3.72348 2.14629e-19)
(4.89041 -3.94403 -5.85719e-19)
(4.73027 -4.14436 -1.29799e-18)
(3.15167 -1.52181 -9.71258e-20)
(3.61102 -2.42113 0)
(3.95009 -2.859 -5.82367e-19)
(4.14837 -3.0104 0)
(4.32797 -3.15702 0)
(4.47107 -3.3152 -3.62875e-19)
(4.5765 -3.47031 1.93514e-18)
(4.63984 -3.62737 -1.13147e-18)
(4.6563 -3.78024 2.16427e-19)
(4.62252 -3.92557 0)
(4.53895 -4.05598 6.76669e-19)
(4.40783 -4.16418 -5.27866e-19)
(3.1997 -2.49517 1.52832e-19)
(3.70485 -2.99973 3.20964e-19)
(3.90176 -3.22452 5.27207e-19)
(4.0905 -3.30463 1.11843e-18)
(4.24631 -3.38949 -1.04699e-18)
(4.37191 -3.47336 -7.18495e-19)
(4.46576 -3.55896 0)
(4.52587 -3.64742 0)
(4.54893 -3.73449 7.13118e-19)
(4.53246 -3.81606 0)
(4.47302 -3.88564 2.58009e-19)
(4.3705 -3.93577 4.58189e-19)
(3.34122 -3.01903 1.69399e-19)
(3.81113 -3.33529 -1.97183e-19)
(3.90062 -3.45826 -6.63784e-19)
(4.0391 -3.48639 0)
(4.14618 -3.5265 0)
(4.2379 -3.5698 1.12488e-18)
(4.31111 -3.61517 0)
(4.36518 -3.66094 -1.55564e-18)
(4.39206 -3.70094 -6.24696e-19)
(4.39128 -3.73547 1.41577e-18)
(4.3563 -3.75465 -2.19443e-18)
(4.28564 -3.7524 1.49079e-18)
(3.41972 -3.39653 -1.37413e-19)
(3.87432 -3.56076 -2.61063e-19)
(3.86869 -3.58901 5.59451e-19)
(3.95346 -3.58127 1.10424e-19)
(4.01014 -3.58829 1.28714e-18)
(4.06703 -3.59935 -2.31285e-18)
(4.12007 -3.6097 2.06783e-18)
(4.16894 -3.61704 1.52309e-19)
(4.20257 -3.61944 0)
(4.2219 -3.61054 0)
(4.21797 -3.58045 3.78454e-18)
(4.18361 -3.52969 1.26355e-19)
(3.54712 -3.48352 -9.50567e-20)
(3.9162 -3.59784 -5.66422e-19)
(3.81008 -3.6103 0)
(3.83314 -3.58966 -1.43236e-18)
(3.83689 -3.57351 1.62806e-18)
(3.85532 -3.56077 4.09975e-18)
(3.8828 -3.54385 2.60735e-18)
(3.91875 -3.51957 3.27938e-19)
(3.95688 -3.48485 -4.46773e-18)
(3.99286 -3.43295 2.09536e-18)
(4.01913 -3.35884 2.39394e-18)
(4.02469 -3.26243 1.54633e-19)
(3.6433 -3.45069 4.18491e-20)
(3.97052 -3.56246 5.99339e-19)
(3.73588 -3.55533 0)
(3.68273 -3.5188 -2.00937e-18)
(3.62714 -3.4889 -1.60926e-18)
(3.60144 -3.4591 1.95508e-19)
(3.59829 -3.4189 -5.4087e-18)
(3.61591 -3.365 1.46016e-19)
(3.65011 -3.29407 -1.5926e-19)
(3.69741 -3.20091 2.52644e-18)
(3.75122 -3.08256 -2.22548e-18)
(3.7974 -2.93898 6.31125e-20)
(3.74506 -3.24025 -7.22809e-19)
(4.01839 -3.39813 4.05982e-19)
(3.61471 -3.40035 -3.53005e-18)
(3.48887 -3.37479 2.04331e-18)
(3.37955 -3.34171 0)
(3.31139 -3.30043 0)
(3.27646 -3.2397 3.36581e-18)
(3.27203 -3.15684 6.03716e-18)
(3.2956 -3.05006 -2.83995e-18)
(3.34646 -2.91512 -2.60974e-18)
(3.42037 -2.75055 -2.61484e-18)
(3.50256 -2.55494 0)
(3.82905 -2.91323 1.76765e-20)
(4.0574 -3.09357 1.88926e-18)
(3.49534 -3.14098 5.36614e-18)
(3.27008 -3.16719 0)
(3.10866 -3.14626 5.07239e-18)
(3.00118 -3.09874 0)
(2.93722 -3.01917 1.31599e-19)
(2.91069 -2.90716 -3.31027e-18)
(2.91987 -2.76422 3.43181e-18)
(2.96713 -2.58519 0)
(3.05074 -2.36951 0)
(3.15712 -2.11242 -6.66647e-18)
(3.895 -2.4385 -2.16895e-18)
(3.84252 -2.79113 2.07232e-18)
(3.2905 -2.84097 4.24999e-19)
(3.00701 -2.91036 -6.74673e-18)
(2.82078 -2.91636 -2.62417e-18)
(2.68753 -2.87035 -2.46228e-18)
(2.60293 -2.77483 -4.45612e-18)
(2.55872 -2.63398 -1.19907e-17)
(2.55348 -2.4549 -3.30526e-18)
(2.59187 -2.22816 -7.45106e-18)
(2.672 -1.95294 7.47748e-18)
(2.78355 -1.61769 7.29008e-18)
(3.89819 -1.30634 3.25737e-18)
(3.83358 -2.17034 -1.28849e-18)
(3.07742 -2.52191 3.43637e-19)
(2.74406 -2.65817 6.4358e-18)
(2.5369 -2.68438 0)
(2.3886 -2.63805 -5.96149e-18)
(2.2922 -2.52783 4.90008e-18)
(2.23573 -2.35695 3.79055e-18)
(2.21695 -2.13932 -1.3463e-17)
(2.24174 -1.85264 7.81919e-18)
(2.30676 -1.4947 -7.50517e-18)
(2.40858 -1.04878 0)
(4.13639 -5.19221 -1.46236e-18)
(3.81934 -5.32103 3.51087e-18)
(3.46846 -5.38091 -1.53899e-18)
(3.09823 -5.3669 -1.63409e-19)
(2.72193 -5.27524 -3.06102e-19)
(2.35144 -5.10282 3.33497e-19)
(1.99621 -4.84636 1.11413e-20)
(1.67014 -4.50669 -6.70633e-19)
(1.37713 -4.07952 -2.53255e-18)
(1.09028 -3.52968 0)
(0.751411 -2.96891 0)
(0.043432 -2.67435 -9.33989e-21)
(4.51335 -4.31822 -2.73062e-19)
(4.2563 -4.45229 7.47275e-19)
(3.96951 -4.54036 -7.59851e-19)
(3.66588 -4.58204 0)
(3.35662 -4.57495 1.66167e-18)
(3.05478 -4.51869 0)
(2.77139 -4.41228 1.8563e-18)
(2.51883 -4.25468 3.88538e-18)
(2.30936 -4.04065 -3.35649e-18)
(2.14034 -3.6856 0)
(2.02771 -3.32221 0)
(1.73603 -3.27988 8.27598e-21)
(4.23269 -4.24461 3.94064e-19)
(4.01844 -4.29498 -2.76885e-19)
(3.77837 -4.31514 5.72769e-19)
(3.52406 -4.30581 0)
(3.269 -4.26823 -9.1061e-19)
(3.02921 -4.20229 2.56353e-18)
(2.81889 -4.1063 -3.65494e-18)
(2.65331 -3.97904 -4.8984e-18)
(2.54579 -3.82175 3.89657e-18)
(2.49506 -3.58831 0)
(2.50075 -3.32459 8.20445e-19)
(2.44878 -3.3614 3.19796e-19)
(4.22522 -3.96491 5.21263e-19)
(4.04115 -3.9721 -1.44076e-18)
(3.82616 -3.95908 1.78337e-18)
(3.59198 -3.92799 -1.78774e-18)
(3.35358 -3.8819 0)
(3.12825 -3.82387 1.29866e-18)
(2.93444 -3.7559 1.25594e-18)
(2.79013 -3.68052 8.44737e-19)
(2.71239 -3.59943 -2.00195e-18)
(2.69791 -3.49612 0)
(2.78099 -3.31899 -5.04338e-19)
(2.9655 -3.51072 9.39935e-19)
(4.17387 -3.73147 1.72603e-18)
(4.02062 -3.6952 -8.88261e-19)
(3.83069 -3.64797 0)
(3.61335 -3.59546 0)
(3.38282 -3.54294 1.22985e-18)
(3.15778 -3.49595 -1.18316e-18)
(2.95913 -3.45893 -1.5926e-19)
(2.80753 -3.43413 0)
(2.73636 -3.4245 -8.49892e-19)
(2.74695 -3.42257 1.21235e-18)
(2.87576 -3.33404 -1.56442e-18)
(3.16267 -3.65153 -4.36225e-19)
(4.10972 -3.46275 -3.88711e-18)
(3.99018 -3.38728 1.96998e-18)
(3.82589 -3.31198 4.62743e-18)
(3.62337 -3.24479 1.8583e-19)
(3.39512 -3.19384 -6.27688e-18)
(3.1602 -3.16557 -2.8305e-18)
(2.94207 -3.16488 -1.53051e-19)
(2.76667 -3.1943 0)
(2.66651 -3.2547 0)
(2.67165 -3.34211 -1.11197e-18)
(2.82163 -3.38347 -9.14212e-19)
(3.19574 -3.78348 3.9427e-19)
(3.99334 -3.15045 2.32146e-18)
(3.91192 -3.03702 -4.7034e-18)
(3.77642 -2.93675 -2.35439e-18)
(3.59072 -2.85996 -1.90842e-20)
(3.36396 -2.81669 2.79954e-18)
(3.11491 -2.81387 2.89148e-18)
(2.86912 -2.8551 1.64102e-18)
(2.6564 -2.94241 1.62645e-18)
(2.51412 -3.07632 -1.77673e-18)
(2.48348 -3.25761 0)
(2.62095 -3.41558 1.53322e-18)
(3.03032 -3.88614 -5.51553e-19)
(3.81171 -2.7787 0)
(3.77115 -2.62561 2.56862e-18)
(3.66734 -2.50267 0)
(3.50186 -2.42152 -2.29581e-19)
(3.27915 -2.39318 -1.95075e-19)
(3.01723 -2.42425 6.27546e-18)
(2.74227 -2.51456 -1.43812e-18)
(2.48642 -2.66399 -3.36907e-18)
(2.29098 -2.8722 -1.88879e-18)
(2.20624 -3.14675 1.13506e-18)
(2.31198 -3.42468 -2.74957e-18)
(2.70948 -3.95583 1.75987e-18)
(3.55984 -2.33841 3.0624e-18)
(3.55783 -2.14039 -2.99534e-18)
(3.48496 -1.99696 -3.35651e-18)
(3.34284 -1.91844 3.45467e-18)
(3.12865 -1.91461 3.50281e-18)
(2.85822 -1.99019 -1.01204e-17)
(2.5586 -2.13749 0)
(2.26028 -2.35168 1.67489e-18)
(2.00546 -2.63123 1.7678e-18)
(1.85003 -2.99483 0)
(1.88461 -3.38286 2.90387e-18)
(2.1948 -3.97003 -3.15813e-18)
(3.24537 -1.82566 0)
(3.2715 -1.57407 -7.5908e-18)
(3.22202 -1.41344 -4.16914e-18)
(3.1037 -1.34854 -7.86586e-18)
(2.9047 -1.38204 3.73162e-18)
(2.63338 -1.51651 3.6724e-18)
(2.31886 -1.73004 0)
(1.98654 -2.00899 0)
(1.67304 -2.35022 0)
(1.43344 -2.78821 0)
(1.35681 -3.2638 -7.92701e-19)
(1.44502 -3.89606 -5.46945e-20)
(2.88422 -1.2397 4.22711e-18)
(2.9253 -0.927076 4.19892e-18)
(2.88346 -0.761648 1.75933e-17)
(2.78566 -0.726814 4.20139e-18)
(2.61005 -0.812469 1.71489e-17)
(2.34614 -1.02438 -4.08471e-18)
(2.03034 -1.31159 -3.9643e-18)
(1.67912 -1.65169 0)
(1.31649 -2.03783 -3.76438e-18)
(0.990441 -2.5172 -2.12317e-18)
(0.743103 -3.00243 -1.7701e-18)
(0.576215 -3.6781 -1.92704e-25)
(2.5091 -0.564922 0)
(2.55024 -0.223001 0)
(2.50248 -0.0969069 -1.69857e-17)
(2.4227 -0.105126 -1.11009e-17)
(2.25879 -0.266436 -3.95352e-18)
(2.00999 -0.564691 0)
(1.70836 -0.920203 4.0355e-18)
(1.35856 -1.30709 0)
(0.967299 -1.71563 4.10377e-20)
(0.569904 -2.18586 2.01076e-18)
(0.121203 -2.65881 6.89376e-19)
(-0.903946 -3.40514 4.48769e-18)
(0.180636 -2.38747 3.32938e-19)
(-0.427005 -2.08023 3.6753e-20)
(-1.64817 -2.25717 -1.82987e-20)
(-2.30059 -3.20871 -3.19868e-19)
(-2.5775 -3.73317 0)
(-2.9566 -4.22971 -6.83599e-20)
(-3.32199 -4.53391 0)
(-3.72212 -4.7269 -2.9147e-19)
(-4.1006 -4.78616 3.14042e-18)
(-4.45146 -4.74724 -2.16436e-18)
(-4.75674 -4.61315 -3.5118e-18)
(-5.00766 -4.40644 2.18746e-18)
(-0.779434 -3.20541 2.75588e-19)
(-1.69928 -3.51845 -4.42766e-19)
(-2.32585 -4.00781 3.42652e-19)
(-2.57916 -4.23453 1.89728e-19)
(-2.67893 -4.4895 -6.23594e-19)
(-2.84681 -4.71021 3.23302e-19)
(-3.0401 -4.87579 -4.2838e-19)
(-3.26482 -4.9848 -9.42826e-20)
(-3.49498 -5.02345 1.13092e-18)
(-3.72683 -4.99285 1.8e-22)
(-3.94757 -4.89528 8.64298e-19)
(-4.148 -4.7349 7.06348e-19)
(-1.52397 -3.15342 -1.95652e-19)
(-2.42429 -3.61172 0)
(-2.86223 -3.95203 0)
(-3.01381 -4.15071 -4.71381e-19)
(-3.16026 -4.33111 0)
(-3.31833 -4.47491 -4.95382e-19)
(-3.4736 -4.58112 3.97843e-19)
(-3.63088 -4.64512 7.33149e-19)
(-3.78403 -4.66206 -5.45726e-19)
(-3.92949 -4.6286 -2.93364e-19)
(-4.05998 -4.54516 -8.62327e-19)
(-4.1681 -4.41402 8.90354e-19)
(-2.49732 -3.20018 -3.06491e-19)
(-3.00356 -3.70497 -3.21196e-19)
(-3.22843 -3.90309 6.34896e-19)
(-3.30897 -4.09251 4.96141e-19)
(-3.39392 -4.24929 0)
(-3.47793 -4.37589 -2.01146e-18)
(-3.56376 -4.47068 1.5013e-18)
(-3.65251 -4.5316 0)
(-3.73971 -4.55532 9.39236e-19)
(-3.82128 -4.53928 -1.54156e-18)
(-3.89074 -4.48019 1.20267e-18)
(-3.94061 -4.37781 2.47599e-19)
(-3.02336 -3.34174 2.39087e-19)
(-3.34047 -3.81146 5.88556e-19)
(-3.46359 -3.90186 1.08239e-19)
(-3.49196 -4.04105 0)
(-3.53226 -4.14907 -1.174e-18)
(-3.57574 -4.2419 1.88993e-18)
(-3.6214 -4.31616 0)
(-3.66728 -4.37149 -8.60449e-19)
(-3.70725 -4.39932 -8.03408e-19)
(-3.74155 -4.39933 1.39982e-18)
(-3.76092 -4.36469 0)
(-3.75799 -4.29442 -1.34762e-18)
(-3.40146 -3.4203 1.60991e-19)
(-3.56552 -3.8751 1.33597e-19)
(-3.59497 -3.86967 -5.58151e-19)
(-3.58778 -3.95517 -2.86705e-18)
(-3.59516 -4.01276 -3.22099e-20)
(-3.60656 -4.07063 2.40197e-18)
(-3.6173 -4.12469 0)
(-3.6249 -4.17485 2.78156e-18)
(-3.62724 -4.21002 -1.72904e-18)
(-3.61818 -4.23052 1.75797e-18)
(-3.5877 -4.22746 7.46642e-20)
(-3.53588 -4.19375 -1.2731e-19)
(-3.48933 -3.54756 -3.5447e-19)
(-3.6164 -3.91083 -3.53046e-19)
(-3.61883 -3.81165 0)
(-3.59692 -3.83448 3.0048e-18)
(-3.58116 -3.83903 -4.59701e-18)
(-3.56899 -3.85847 -1.15336e-19)
(-3.55245 -3.88711 -5.02328e-18)
(-3.52851 -3.92435 1.66031e-19)
(-3.49365 -3.96403 -2.1579e-18)
(-3.44148 -4.00145 -2.2223e-18)
(-3.36646 -4.0291 2.38961e-18)
(-3.2686 -4.03564 -2.08357e-18)
(-3.45525 -3.64279 2.09054e-20)
(-3.55108 -3.97419 -4.26821e-19)
(-3.56047 -3.7351 0)
(-3.52634 -3.683 2.00349e-18)
(-3.49719 -3.62843 1.46812e-18)
(-3.46802 -3.6037 1.31402e-18)
(-3.42834 -3.60162 -1.60861e-19)
(-3.37463 -3.62052 3.68066e-20)
(-3.30352 -3.65619 -2.58595e-18)
(-3.20961 -3.70514 -2.6283e-19)
(-3.08991 -3.76063 9.90348e-20)
(-2.94423 -3.80834 0)
(-3.24441 -3.74546 3.91966e-19)
(-3.41549 -4.01589 0)
(-3.40845 -3.61419 0)
(-3.38288 -3.48875 -2.03641e-18)
(-3.35046 -3.37983 1.88564e-18)
(-3.3098 -3.3124 -3.73939e-18)
(-3.24949 -3.27834 0)
(-3.16663 -3.27499 2.91967e-18)
(-3.05936 -3.2999 -1.70026e-19)
(-2.92317 -3.35242 2.60684e-18)
(-2.75661 -3.42824 -2.82787e-18)
(-2.55816 -3.51236 5.78705e-18)
(-2.91554 -3.8284 1.31167e-18)
(-3.09544 -4.0555 -6.61161e-19)
(-3.14785 -3.49357 -2.89332e-18)
(-3.17528 -3.26863 -5.66001e-18)
(-3.15516 -3.1076 0)
(-3.10821 -3.00066 3.86316e-18)
(-3.02884 -2.93737 -7.42285e-18)
(-2.91652 -2.91167 3.20918e-18)
(-2.77262 -2.92199 3.42652e-18)
(-2.59175 -2.97084 0)
(-2.37329 -3.0564 -3.45557e-18)
(-2.11241 -3.16487 -6.22793e-18)
(-2.4413 -3.89416 -2.13854e-18)
(-2.79545 -3.83993 9.09027e-19)
(-2.84786 -3.28682 3.02093e-18)
(-2.91851 -3.00429 2.87107e-18)
(-2.92528 -2.8182 9.50356e-20)
(-2.87968 -2.68538 -7.32681e-18)
(-2.78404 -2.60132 8.38722e-18)
(-2.6425 -2.55779 1.56858e-17)
(-2.46198 -2.55356 -1.07732e-17)
(-2.23271 -2.5934 -7.44192e-18)
(-1.9538 -2.67538 6.92053e-18)
(-1.61345 -2.78886 0)
(-1.30532 -3.89642 5.10936e-18)
(-2.17349 -3.83158 1.77762e-18)
(-2.52863 -3.07199 1.92631e-18)
(-2.66627 -2.73974 6.98969e-18)
(-2.69321 -2.53274 0)
(-2.64717 -2.38496 5.48203e-18)
(-2.53656 -2.28911 -1.06108e-17)
(-2.36455 -2.23331 -4.33293e-18)
(-2.14504 -2.21546 -4.40993e-18)
(-1.85495 -2.24161 7.80097e-18)
(-1.4921 -2.30829 4.17659e-18)
(-1.03937 -2.41189 1.17053e-17)
(-5.19459 -4.14009 5.7423e-19)
(-5.32323 -3.82248 2.24368e-19)
(-5.38285 -3.47101 5.14837e-19)
(-5.36857 -3.10021 -1.00422e-18)
(-5.27656 -2.72346 5.3505e-20)
(-5.10384 -2.3525 0)
(-4.84708 -1.99686 -1.44739e-18)
(-4.50717 -1.67041 1.17691e-18)
(-4.07991 -1.37707 0)
(-3.53013 -1.08989 6.96188e-20)
(-2.96915 -0.750724 0)
(-2.67467 -0.0433554 -6.36817e-19)
(-4.32179 -4.51764 -1.18571e-18)
(-4.45562 -4.26016 1.54292e-18)
(-4.54337 -3.97288 1.53522e-18)
(-4.58468 -3.6687 -5.52786e-19)
(-4.57718 -3.35888 0)
(-4.52053 -3.05653 0)
(-4.41377 -2.77269 2.11755e-18)
(-4.25587 -2.51978 -2.52251e-18)
(-4.0416 -2.31001 0)
(-3.68637 -2.14078 1.04834e-18)
(-3.32246 -2.02803 -6.70265e-20)
(-3.27973 -1.73641 -2.06383e-18)
(-4.24832 -4.23861 5.94343e-19)
(-4.29834 -4.02393 -1.13403e-18)
(-4.3181 -3.78327 0)
(-4.30837 -3.52826 -1.68393e-18)
(-4.27041 -3.27244 -2.13757e-18)
(-4.2041 -3.03192 4.84001e-18)
(-4.10778 -2.82094 -4.50367e-18)
(-3.98022 -2.65479 0)
(-3.82271 -2.54683 0)
(-3.58911 -2.49572 0)
(-3.32516 -2.50127 -8.05019e-19)
(-3.36155 -2.44941 3.1332e-19)
(-3.96924 -4.23246 -5.18973e-19)
(-3.97585 -4.04799 -2.27351e-19)
(-3.96218 -3.83238 0)
(-3.93048 -3.59738 -2.0673e-19)
(-3.88383 -3.35807 0)
(-3.82531 -3.13182 0)
(-3.75693 -2.93715 1.31093e-18)
(-3.68125 -2.79208 -1.69326e-18)
(-3.59997 -2.71378 2.10235e-18)
(-3.4966 -2.69901 0)
(-3.31921 -2.782 -6.23046e-19)
(-3.51071 -2.96649 -1.12015e-18)
(-3.73624 -4.18267 3.50521e-18)
(-3.69899 -4.02908 -8.86291e-19)
(-3.65083 -3.83844 2.02669e-18)
(-3.59745 -3.62011 1.15942e-18)
(-3.54423 -3.38845 -3.44652e-18)
(-3.49666 -3.16225 0)
(-3.45924 -2.96256 -1.47462e-18)
(-3.43416 -2.80992 0)
(-3.42438 -2.73804 0)
(-3.42222 -2.7482 1.21623e-18)
(-3.33389 -2.8769 2.27103e-20)
(-3.65135 -3.16365 1.19034e-18)
(-3.4676 -4.12006 -1.94251e-18)
(-3.39076 -4.00026 -2.09054e-19)
(-3.31416 -3.83517 0)
(-3.2459 -3.63151 0)
(-3.19412 -3.40184 -4.07163e-18)
(-3.16531 -3.1655 2.61467e-18)
(-3.16432 -2.94606 2.88122e-18)
(-3.19363 -2.76952 1.58364e-18)
(-3.25399 -2.66842 -3.7035e-18)
(-3.34141 -2.67292 -1.11188e-18)
(-3.38303 -2.82244 0)
(-3.78301 -3.19656 1.34609e-18)
(-3.15475 -4.0049 -4.64783e-18)
(-3.03947 -3.92333 2.02091e-18)
(-2.93759 -3.78705 2.59224e-18)
(-2.85955 -3.60001 2.194e-19)
(-2.81549 -3.3716 -2.58066e-19)
(-2.81228 -3.12082 -3.02009e-18)
(-2.85344 -2.87341 -4.60504e-18)
(-2.94081 -2.65933 -1.68713e-18)
(-3.07498 -2.516 1.70271e-18)
(-3.25652 -2.48458 0)
(-3.41476 -2.62168 2.56509e-18)
(-3.88577 -3.03078 -8.34817e-19)
(-2.78148 -3.82362 5.09846e-18)
(-2.62602 -3.7832 -2.79034e-18)
(-2.50124 -3.67869 -2.92357e-18)
(-2.41887 -3.51182 -5.87707e-18)
(-2.38996 -3.28725 5.86143e-18)
(-2.421 -3.02334 -2.03868e-19)
(-2.51161 -2.74656 9.55128e-18)
(-2.66153 -2.48922 1.59355e-18)
(-2.87018 -2.29264 1.89011e-18)
(-3.14523 -2.20713 0)
(-3.42366 -2.31246 -1.73669e-18)
(-3.95495 -2.70961 -1.09668e-18)
(-2.33839 -3.57099 0)
(-2.13752 -3.5694 3.01494e-18)
(-1.99221 -3.49603 3.15914e-18)
(-1.91273 -3.3526 -3.49393e-18)
(-1.90884 -3.13648 -2.14881e-19)
(-1.98503 -2.86395 -3.51653e-18)
(-2.13322 -2.56245 -3.31184e-18)
(-2.34833 -2.26261 0)
(-2.62875 -2.00667 -1.76953e-18)
(-2.99309 -1.85057 -1.14483e-18)
(-3.38161 -1.8846 4.70762e-18)
(-3.96939 -2.19401 -1.50525e-18)
(-1.82154 -3.25458 0)
(-1.5666 -3.28133 0)
(-1.40433 -3.23151 0)
(-1.33908 -3.11216 -1.21181e-17)
(-1.37339 -2.91132 7.4769e-18)
(-1.5094 -2.63802 7.36389e-18)
(-1.72458 -2.32175 0)
(-2.00502 -1.98806 -3.69368e-18)
(-2.3474 -1.6736 0)
(-2.78632 -1.43335 -2.23802e-18)
(-3.26265 -1.35622 -7.9337e-19)
(-3.89526 -1.44328 -2.00089e-18)
(-1.2305 -2.89091 0)
(-0.914128 -2.93263 0)
(-0.747855 -2.89039 8.98996e-18)
(-0.713622 -2.79205 1.26916e-17)
(-0.80124 -2.61471 2.88781e-19)
(-1.0158 -2.34909 4.23402e-18)
(-1.30544 -2.03184 -2.01977e-18)
(-1.64747 -1.67957 5.57867e-18)
(-2.03505 -1.31621 3.76867e-18)
(-2.51543 -0.989732 2.08938e-18)
(-3.00115 -0.741799 -1.77125e-18)
(-3.6769 -0.574353 -3.27258e-18)
(-0.550338 -2.5138 0)
(-0.205462 -2.5551 0)
(-0.0800664 -2.50723 -8.34888e-18)
(-0.0896231 -2.42691 3.60654e-18)
(-0.254517 -2.26129 -3.96537e-18)
(-0.556106 -2.01107 -4.10087e-18)
(-0.914342 -1.70836 4.02882e-18)
(-1.30328 -1.35789 0)
(-1.71332 -0.966203 -3.7473e-18)
(-2.18453 -0.568573 -1.97231e-18)
(-2.65798 -0.11936 2.27969e-18)
(-3.40585 0.907667 -4.32128e-18)
(-2.38331 -0.18083 2.50521e-19)
(-2.0812 0.415238 0)
(-2.24042 1.63144 0)
(-3.19497 2.30088 4.53917e-19)
(-3.72022 2.5745 -2.21521e-19)
(-4.21816 2.95518 0)
(-4.52275 3.31929 0)
(-4.71805 3.71962 -2.88138e-19)
(-4.77786 4.09806 5.97799e-20)
(-4.74044 4.44972 -1.46754e-18)
(-4.60742 4.75526 -3.54228e-18)
(-4.40194 5.00686 1.51312e-18)
(-3.19817 0.770865 -4.12792e-19)
(-3.5156 1.69094 0)
(-4.004 2.32361 0)
(-4.23023 2.58051 -4.81511e-19)
(-4.48362 2.6784 9.29644e-19)
(-4.7036 2.84666 -1.45599e-18)
(-4.86858 3.03899 8.18502e-19)
(-4.97754 3.26391 5.46375e-19)
(-5.01651 3.49368 5.8869e-19)
(-4.98652 3.72551 8.53267e-19)
(-4.88968 3.94624 0)
(-4.73025 4.14684 2.39941e-19)
(-3.15048 1.51254 1.95389e-19)
(-3.61119 2.4155 0)
(-3.94988 2.85759 0)
(-4.14728 3.0117 -9.87671e-20)
(-4.32585 3.15785 9.92273e-20)
(-4.46862 3.31662 -7.69533e-19)
(-4.5739 3.47188 0)
(-4.63739 3.62955 -1.04271e-18)
(-4.65418 3.78288 1.19437e-18)
(-4.6209 3.92867 -1.86436e-19)
(-4.53789 4.05943 -6.7938e-19)
(-4.40744 4.16795 9.02931e-19)
(-3.19966 2.48386 -1.54688e-19)
(-3.70468 2.99361 3.23254e-19)
(-3.90054 3.22232 0)
(-4.08842 3.30439 4.99212e-19)
(-4.24358 3.38984 -4.51315e-19)
(-4.36893 3.47467 7.23197e-19)
(-4.46277 3.56101 0)
(-4.52311 3.65035 -7.78826e-19)
(-4.54655 3.73817 -1.66705e-18)
(-4.53058 3.82027 1.14445e-18)
(-4.47191 3.89036 1.21246e-18)
(-4.37024 3.94076 -2.58899e-18)
(-3.34041 3.00721 1.20666e-19)
(-3.81015 3.32923 -2.71775e-19)
(-3.89859 3.45564 6.67774e-19)
(-4.03629 3.48545 0)
(-4.14286 3.52658 -2.49166e-18)
(-4.23431 3.57113 2.14394e-18)
(-4.30743 3.61768 1.00712e-18)
(-4.36179 3.66465 6.78717e-19)
(-4.38932 3.7056 0)
(-4.3892 3.74073 0)
(-4.35503 3.76079 0)
(-4.28542 3.75877 -3.43617e-19)
(-3.42048 3.38374 2.78089e-19)
(-3.87265 3.55408 0)
(-3.86621 3.58563 -5.62931e-19)
(-3.95008 3.57981 1.50128e-18)
(-4.00628 3.58823 1.31241e-18)
(-4.06284 3.60085 -2.22899e-18)
(-4.11572 3.61272 1.1384e-18)
(-4.1649 3.6214 -3.77611e-18)
(-4.19953 3.62456 -1.5458e-20)
(-4.21931 3.6169 -1.50847e-19)
(-4.21624 3.58788 7.62541e-20)
(-4.18316 3.53727 5.47192e-18)
(-3.54825 3.47089 -9.51203e-19)
(-3.91464 3.58959 9.20852e-19)
(-3.80772 3.60597 -1.75058e-18)
(-3.82939 3.58775 -1.43724e-18)
(-3.83259 3.57333 -2.89901e-18)
(-3.85054 3.56242 -1.55528e-18)
(-3.87772 3.54728 -2.43029e-18)
(-3.9137 3.52458 4.38997e-18)
(-3.9523 3.49116 0)
(-3.98902 3.44043 4.20523e-18)
(-4.01635 3.36707 -6.34229e-18)
(-4.02341 3.27069 2.30122e-18)
(-3.64409 3.4373 -5.0084e-19)
(-3.96873 3.55368 -1.00727e-18)
(-3.73353 3.55021 2.35007e-18)
(-3.67891 3.51639 0)
(-3.62261 3.48855 -1.88131e-18)
(-3.59621 3.46081 2.8662e-18)
(-3.59255 3.42258 -2.00465e-19)
(-3.60994 3.37041 -3.69805e-20)
(-3.64426 3.30089 -2.50257e-18)
(-3.69206 3.2088 -4.82682e-18)
(-3.74685 3.09097 2.28946e-18)
(-3.79463 2.94724 -2.53719e-18)
(-3.74601 3.22698 3.95413e-19)
(-4.0172 3.38905 0)
(-3.61285 3.39444 0)
(-3.48524 3.37187 0)
(-3.37506 3.34118 1.89981e-18)
(-3.30598 3.30213 0)
(-3.27028 3.24348 -1.45833e-19)
(-3.26529 3.16238 5.94452e-18)
(-3.28861 3.05697 1.04208e-19)
(-3.33959 2.9229 2.62011e-18)
(-3.4142 2.75861 -2.77818e-18)
(-3.49793 2.5626 8.5673e-18)
(-3.82958 2.89988 1.74208e-20)
(-4.05622 3.08328 3.57008e-18)
(-3.4947 3.13418 -1.35837e-18)
(-3.26725 3.16374 0)
(-3.10466 3.14556 0)
(-2.99601 3.10041 0)
(-2.93099 3.02296 0)
(-2.9036 2.91267 3.33487e-18)
(-2.91217 2.77097 -1.30062e-17)
(-2.9592 2.59262 -6.48602e-18)
(-3.04318 2.37697 6.46649e-18)
(-3.15088 2.11922 3.76496e-18)
(-3.89827 2.42675 -2.16498e-18)
(-3.84494 2.78155 -2.78224e-18)
(-3.29134 2.83402 -1.78601e-18)
(-3.00557 2.90664 0)
(-2.81782 2.91556 0)
(-2.68314 2.87203 5.07764e-18)
(-2.59719 2.77867 -8.67521e-18)
(-2.55187 2.6395 1.60197e-17)
(-2.54579 2.46157 1.1024e-17)
(-2.5837 2.2354 6.88014e-18)
(-2.66398 1.96009 -6.94027e-18)
(-2.77658 1.62389 5.27264e-19)
(-3.89935 1.29667 -1.73436e-18)
(-3.83802 2.15929 0)
(-3.08232 2.51308 3.54292e-18)
(-2.74503 2.65376 -1.03577e-17)
(-2.53573 2.68348 1.02298e-17)
(-2.3857 2.63976 4.65748e-19)
(-2.28766 2.53182 4.91157e-18)