/*--------------------------------*- C++ -*----------------------------------*\
| =========                 |                                                 |
| \\      /  F ield         | OpenFOAM: The Open Source CFD Toolbox           |
|  \\    /   O peration     | Version:  v1912                                 |
|   \\  /    A nd           | Website:  www.openfoam.com                      |
|    \\/     M anipulation  |                                                 |
\*---------------------------------------------------------------------------*/
FoamFile
{
    version     2.0;
    format      ascii;
    class       volScalarField;
    location    "400";
    object      epsilon;
}
// * * * * * * * * * * * * * * * * * * * * * * * * * * * * * * * * * * * * * //

dimensions      [0 2 -3 0 0 0 0];


internalField   nonuniform List<scalar> 
3072
(
3.62805
3.03369
3.58409
3.57525
3.23422
2.74327
2.99319
6.74925
27.5851
43.1822
50.4757
55.5872
7.42989
6.59613
5.43038
5.19921
5.95899
12.8043
22.0991
24.1363
31.8145
35.5855
36.6964
37.4174
9.28232
7.5391
10.3009
15.2096
18.0264
18.4746
21.2329
24.3353
27.9422
29.1932
30.3843
31.393
13.5145
11.0269
14.2756
15.7993
16.5987
17.9366
21.1729
24.0285
26.0199
27.0593
28.0987
28.964
15.4823
12.7714
14.6144
15.1534
16.2445
18.5127
21.6772
24.1283
25.6452
26.5439
27.363
28.0622
16.4095
13.0619
14.296
15.044
16.8516
19.7613
22.5639
24.585
25.8731
26.6933
27.3867
27.9592
16.5376
12.5584
13.5774
15.4628
18.2235
21.3599
23.9875
25.7968
26.9283
27.6639
28.2442
28.7385
16.5799
12.0916
13.9975
17.3448
21.3411
24.8305
27.3672
28.999
29.9562
30.5086
30.8766
31.1599
17.3508
12.9196
17.3279
23.4262
29.0926
33.0721
35.407
36.566
36.9367
36.8399
36.5374
36.1734
19.3987
17.1081
28.9101
39.6695
47.1269
50.9482
52.0236
51.4083
49.9043
48.0199
46.0951
44.2961
24.0868
34.5003
59.2699
74.7927
80.5696
80.5594
77.5071
73.0385
68.1261
63.2852
58.824
54.8596
112.007
106.879
117.745
120.977
118.149
110.712
102.269
93.6992
85.5033
77.88
71.0294
64.9841
58.6203
60.1886
60.3345
59.9913
58.5539
55.4306
50.9781
44.7854
37.3206
28.233
18.6247
23.3548
37.913
38.3164
38.5266
38.8521
39.4886
40.6597
43.0268
46.9647
52.0041
57.7713
61.8109
75.561
32.0644
32.5074
32.8181
33.1453
33.89
35.4663
38.3807
43.2955
51.1368
63.0542
81.4193
120.434
29.5862
30.073
30.475
30.9441
31.7594
33.3384
36.2657
41.4022
50.0637
64.7779
92.4868
152.536
28.5946
29.0121
29.3696
29.81
30.5846
32.0684
34.8484
39.8601
48.7531
64.9681
98.8368
177.975
28.4182
28.7994
29.15
29.592
30.3455
31.7654
34.4375
39.3111
48.0905
64.7924
102.369
200.931
29.1618
29.5365
29.9028
30.3518
31.0623
32.3608
34.813
39.394
47.9495
64.5461
104.346
221.425
31.4039
31.634
31.8827
32.2245
32.8055
33.9065
36.0619
40.2527
48.3835
64.6988
105.234
246.2
35.8233
35.5357
35.3547
35.3641
35.6532
36.4203
38.1671
41.851
49.4412
65.3621
106.695
275.269
42.7167
41.401
40.3703
39.675
39.4531
39.8445
41.0718
44.1224
51.0094
66.3212
108.198
306.167
51.4654
48.6655
46.4384
44.7977
43.7918
43.7116
44.4907
46.8413
52.8171
67.2965
110.187
344.729
59.8133
55.5688
52.195
49.6798
47.9949
47.3365
47.7858
49.4632
54.0976
67.1098
110.297
408.757
3.63641
3.03926
3.58891
3.57971
3.23824
2.74587
2.99443
6.73656
27.56
43.1643
50.4604
55.5714
7.43604
6.6001
5.43321
5.20152
5.96059
12.7995
22.0949
24.1294
31.8044
35.5773
36.6886
37.41
9.28731
7.5411
10.3014
15.2085
18.0274
18.4741
21.2263
24.3274
27.9344
29.1858
30.3766
31.3859
13.5159
11.0269
14.2758
15.8004
16.5984
17.9317
21.1653
24.0213
26.0131
27.0526
28.0919
28.9576
15.4803
12.7701
14.6138
15.152
16.24
18.507
21.6702
24.122
25.6394
26.538
27.3568
28.0561
16.404
13.0603
14.2946
15.0407
16.8469
19.7556
22.5585
24.5797
25.8679
26.6878
27.381
27.9536
16.5335
12.5564
13.5752
15.4595
18.2193
21.3556
23.9833
25.7928
26.9241
27.6595
28.2395
28.7336
16.5766
12.0904
13.9957
17.3425
21.3387
24.8284
27.3652
28.9969
29.9539
30.506
30.8736
31.1566
17.3494
12.919
17.3277
23.4267
29.0939
33.0738
35.4085
36.5674
36.9376
36.8403
36.5373
36.1727
19.3989
17.109
28.9129
39.6747
47.1339
50.9557
52.0307
51.4145
49.9096
48.0241
46.0985
44.2986
24.0884
34.503
59.2764
74.8022
80.5805
80.5706
77.5179
73.0483
68.1348
63.2926
58.8302
54.8647
112.018
106.883
117.749
120.983
118.157
110.721
102.279
93.7086
85.5121
77.888
71.0365
64.9903
58.6064
60.1757
60.324
59.982
58.5478
55.4255
50.9758
44.7837
37.3206
28.2335
18.6259
23.3563
37.9059
38.3102
38.5215
38.8489
39.4862
40.6584
43.0264
46.9648
52.0048
57.7727
61.8134
75.5648
32.0581
32.502
32.8137
33.1417
33.8872
35.4644
38.3795
43.295
51.137
63.0552
81.4216
120.438
29.5803
30.0676
30.4702
30.94
31.756
33.3357
36.2637
41.4009
50.0634
64.7787
92.4893
152.54
28.5887
29.0066
29.3645
29.8055
30.5808
32.0653
34.8459
39.8585
48.7524
64.9687
98.8395
177.98
28.4127
28.794
29.1451
29.5875
30.3416
31.7622
34.435
39.3094
48.0897
64.793
102.371
200.937
29.1569
29.5318
29.8984
30.3478
31.0588
32.3579
34.8108
39.3924
47.9488
64.5468
104.349
221.432
31.4006
31.6306
31.8795
32.2216
32.803
33.9044
36.0602
40.2517
48.3832
64.6996
105.238
246.209
35.8223
35.5344
35.3534
35.3628
35.6521
36.4194
38.1665
41.8508
49.4416
65.3636
106.699
275.281
42.7185
41.4022
40.3711
39.6756
39.4536
39.8451
41.0724
44.1232
51.0106
66.3233
108.202
306.182
51.4696
48.6689
46.4412
44.7999
43.7938
43.7134
44.4924
46.843
52.819
67.2991
110.192
344.747
59.8185
55.5733
52.1989
49.6831
47.9979
47.3391
47.7883
49.4656
54.1
67.1126
110.302
408.779
3.63532
3.03756
3.58665
3.57704
3.23482
2.74331
2.99375
6.75842
27.5986
43.1889
50.4806
55.5926
7.43509
6.59837
5.43168
5.19945
5.95987
12.8091
22.0984
24.1366
31.8173
35.5869
36.6983
37.4198
9.28703
7.54229
10.306
15.2111
18.0204
18.4692
21.2334
24.3374
27.9443
29.1953
30.387
31.396
13.5209
11.0312
14.2761
15.7944
16.5935
17.937
21.1761
24.031
26.0225
27.0621
28.1018
28.9674
15.489
12.7749
14.6136
15.1505
16.245
18.5145
21.6804
24.1309
25.6478
26.5468
27.3662
28.0657
16.4163
13.0643
14.2955
15.0439
16.8529
19.7638
22.5662
24.5873
25.8756
26.6962
27.3902
27.9632
16.5425
12.5601
13.5775
15.4631
18.2248
21.3617
23.9895
25.7992
26.9312
27.6676
28.2485
28.7433
16.5831
12.092
13.9975
17.3448
21.3416
24.8316
27.3693
29.0021
29.9605
30.5138
30.8825
31.1664
17.3512
12.919
17.3269
23.425
29.092
33.0729
35.4097
36.5708
36.9432
36.8475
36.5458
36.1821
19.396
17.1058
28.9072
39.6663
47.1248
50.9487
52.027
51.4143
49.9124
48.0293
46.1052
44.3065
24.0837
34.498
59.2667
74.7889
80.5677
80.5596
77.5102
73.0444
68.1342
63.2947
58.8343
54.8702
112.026
106.886
117.748
120.976
118.147
110.711
102.27
93.7028
85.5091
77.8873
71.0378
64.9929
58.6256
60.1939
60.3395
59.9963
58.5573
55.4339
50.9804
44.7872
37.322
28.2334
18.6245
23.3538
37.9157
38.3191
38.5293
38.8543
39.4904
40.6612
43.0279
46.9657
52.0049
57.7723
61.8105
75.56
32.0676
32.5107
32.8213
33.1485
33.8932
35.4694
38.3839
43.2987
51.1402
63.0579
81.4225
120.437
29.5898
30.0767
30.4788
30.948
31.7634
33.3424
36.2699
41.4066
50.0685
64.7832
92.4935
152.545
28.5984
29.0162
29.3739
29.8146
30.5894
32.0735
34.8537
39.8658
48.7593
64.975
98.8461
177.989
28.4226
28.8041
29.155
29.5973
30.351
31.7712
34.4436
39.3178
48.098
64.8011
102.38
200.951
29.1671
29.5422
29.9088
30.358
31.0687
32.3674
34.82
39.4015
47.9577
64.5561
104.358
221.45
31.4109
31.6412
31.8901
32.2319
32.813
33.9141
36.0697
40.261
48.3926
64.7096
105.249
246.233
35.8321
35.5446
35.3635
35.3727
35.6617
36.4287
38.1757
41.86
49.4511
65.3739
106.712
275.309
42.7271
41.4111
40.3801
39.6845
39.4622
39.8536
41.0808
44.1318
51.0197
66.3334
108.215
306.215
51.4759
48.6758
46.4482
44.8071
43.8009
43.7205
44.4996
46.8505
52.8273
67.3087
110.206
344.786
59.8221
55.5775
52.2035
49.688
48.003
47.3444
47.7938
49.4715
54.1069
67.1211
110.314
408.83
3.63643
3.03918
3.58884
3.5796
3.23801
2.74584
2.99488
6.74294
27.5732
43.1753
50.4707
55.5825
7.43629
6.60038
5.43347
5.20185
5.96167
12.8043
22.0991
24.1342
31.811
35.5833
36.6944
37.4158
9.28777
7.5419
10.303
15.2111
18.0298
18.4769
21.2305
24.3321
27.9392
29.1904
30.3813
31.3905
13.5167
11.0284
14.278
15.8029
16.601
17.9348
21.1692
24.0253
26.017
27.0565
28.0958
28.9615
15.4812
12.7718
14.6161
15.1545
16.2427
18.5101
21.6737
24.1255
25.6427
26.5414
27.3603
28.0597
16.405
13.0619
14.2967
15.0429
16.8494
19.7584
22.5615
24.5827
25.871
26.691
27.3844
27.957
16.5342
12.5577
13.577
15.4615
18.2216
21.3581
23.9859
25.7955
26.9269
27.6624
28.2426
28.7369
16.5771
12.0914
13.9973
17.3443
21.3407
24.8305
27.3673
28.9991
29.9562
30.5085
30.8764
31.1596
17.3498
12.9199
17.3292
23.4284
29.0956
33.0754
35.4101
36.5691
36.9394
36.8423
36.5396
36.1752
19.3999
17.1104
28.9149
39.6765
47.1354
50.9567
52.0314
51.4151
49.9103
48.0251
46.0998
44.3002
24.0908
34.5064
59.2795
74.8037
80.5807
80.5701
77.5168
73.0471
68.1338
63.292
58.8301
54.8651
112.035
106.892
117.754
120.984
118.156
110.719
102.276
93.7061
85.5098
77.886
71.0351
64.9895
58.6173
60.1865
60.3342
59.992
58.5564
55.4334
50.9821
44.7889
37.324
28.2359
18.6273
23.3588
37.9116
38.3157
38.5267
38.8535
39.4905
40.6624
43.0303
46.9688
52.0089
57.7766
61.8176
75.571
32.0624
32.5061
32.8175
33.1454
33.8907
35.4677
38.3827
43.2982
51.1404
63.0591
81.4265
120.446
29.5841
30.0713
30.4739
30.9435
31.7594
33.3389
36.2668
41.404
50.0666
64.7824
92.4944
152.55
28.5923
29.0102
29.3681
29.809
30.5842
32.0686
34.8492
39.8617
48.7557
64.9724
98.8445
177.992
28.4162
28.7976
29.1486
29.5911
30.3451
31.7657
34.4385
39.3129
48.0933
64.7969
102.377
200.95
29.1603
29.5353
29.9019
30.3513
31.0624
32.3615
34.8144
39.3962
47.9527
64.5511
104.354
221.446
31.4037
31.6339
31.8829
32.225
32.8065
33.908
36.064
40.2556
48.3874
64.7043
105.244
246.226
35.825
35.5373
35.3565
35.366
35.6554
36.4228
38.1702
41.8547
49.4459
65.3685
106.705
275.298
42.7205
41.4045
40.3736
39.6784
39.4566
39.8482
41.0757
44.1269
51.0147
66.328
108.209
306.199
51.4705
48.6703
46.443
44.8022
43.7963
43.7162
44.4954
46.8462
52.8226
67.3034
110.198
344.763
59.8185
55.574
52.2002
49.6849
48.0001
47.3415
47.7909
49.4683
54.1028
67.1157
110.306
408.791
154.257
146.582
138.666
130.55
123.28
115.622
107.766
99.8485
91.9684
84.2191
76.9608
70.2963
95.7508
97.2799
97.6496
97.2524
96.3959
94.6985
92.3244
89.0695
84.6134
79.2408
73.7811
68.3308
67.7613
69.211
70.2152
70.8341
71.3019
71.2723
70.8249
69.8412
68.2647
66.2961
63.7858
60.6005
53.2075
53.7681
54.0464
54.0951
54.086
54.0178
53.8663
53.5856
53.1316
52.503
51.7009
50.7693
64.4305
59.5971
55.7349
52.8473
50.9094
49.9067
50.0894
51.1145
54.1692
62.5981
85.4816
168.201
63.2956
59.1752
55.8915
53.4601
51.8157
50.8127
50.7831
51.3005
52.9611
57.1074
67.3631
91.495
57.4717
55.0343
53.0453
51.5223
50.3799
49.5346
49.1663
49.2304
50.0773
51.7741
56.4065
64.956
49.9973
49.1688
48.1493
47.0864
46.0737
45.2219
44.7203
44.6659
45.3202
46.2144
48.5642
51.9482
154.25
146.578
138.664
130.55
123.283
115.626
107.772
99.8547
91.9748
84.2255
76.9668
70.3018
95.7485
97.2788
97.6497
97.2534
96.398
94.7014
92.3277
89.0734
84.6179
79.2454
73.7857
68.3351
67.7611
69.2115
70.2164
70.836
71.3045
71.2752
70.8281
69.8446
68.2682
66.2996
63.7893
60.604
53.2066
53.7684
54.0476
54.0972
54.0887
54.0208
53.8694
53.5889
53.135
52.5064
51.7042
50.7725
64.4354
59.6015
55.7388
52.8508
50.9125
49.9095
50.0921
51.1171
54.1717
62.6007
85.485
168.208
63.2996
59.1789
55.895
53.4632
51.8186
50.8154
50.7856
51.3029
52.9635
57.1098
67.3659
91.4984
57.475
55.0374
53.0482
51.5249
50.3823
49.5368
49.1685
49.2327
50.0797
51.7766
56.4093
64.9591
50.0004
49.1717
48.1518
47.0887
46.0759
45.224
44.7227
44.6685
45.323
46.2173
48.5673
51.9513
154.256
146.584
138.668
130.55
123.279
115.62
107.766
99.8496
91.971
84.2232
76.9659
70.302
95.7516
97.2828
97.6532
97.2554
96.3979
94.6996
92.3253
89.0703
84.6145
79.2427
73.7837
68.3338
67.764
69.2148
70.2197
70.8388
71.3058
71.2756
70.8277
69.8434
68.2667
66.2978
63.7873
60.6019
53.2097
53.7715
54.0506
54.0996
54.0905
54.0219
53.8699
53.5887
53.1343
52.5053
51.7029
50.7712
64.4364
59.6032
55.741
52.8534
50.9154
49.9128
50.0957
51.1212
54.1768
62.6075
85.4947
168.231
63.2989
59.1787
55.8952
53.464
51.8199
50.8172
50.7879
51.3059
52.9674
57.1152
67.3734
91.5108
57.4733
55.0361
53.0475
51.5247
50.3828
49.5379
49.1708
49.2356
50.0837
51.7818
56.4165
64.9686
49.9992
49.1709
48.1516
47.0892
46.0773
45.2265
44.7268
44.6733
45.3289
46.2244
48.5757
51.9611
154.271
146.592
138.673
130.556
123.286
115.628
107.773
99.8548
91.9741
84.2245
76.9659
70.3014
95.765
97.2946
97.6637
97.2661
96.409
94.7106
92.3358
89.0797
84.6215
79.2481
73.7878
68.3368
67.7751
69.2261
70.2311
70.8503
71.3179
71.2878
70.8397
69.8549
68.2777
66.3076
63.7958
60.6088
53.2204
53.7826
54.0619
54.1112
54.1022
54.0338
53.8817
53.6002
53.1453
52.5155
51.7122
50.7797
64.4356
59.6024
55.7402
52.8527
50.9147
49.9117
50.0943
51.119
54.1735
62.6025
85.4871
168.215
63.3016
59.1812
55.8975
53.4658
51.8211
50.8175
50.7873
51.3042
52.9643
57.1104
67.3663
91.4999
57.4796
55.0417
53.0521
51.5281
50.3848
49.5385
49.1693
49.2332
50.0797
51.7764
56.4088
64.959
50.0064
49.1764
48.1553
47.091
46.0772
45.2244
44.7226
44.6683
45.3226
46.2169
48.567
51.952
43.8426
43.5586
43.2304
42.9099
42.7146
42.5882
42.5108
42.4744
42.4907
42.5514
42.65
42.7531
36.5791
36.2038
35.8853
35.6568
35.5527
35.5356
35.6104
35.7986
36.1106
36.474
36.7699
36.8418
31.1495
30.9791
30.8666
30.8111
30.7932
30.801
30.8823
31.0925
31.5478
32.1856
32.8814
33.3977
26.9839
27.0629
27.1602
27.2327
27.2345
27.1244
27.0099
27.0233
27.3388
28.1584
30.0472
33.5897
42.7169
41.0456
39.4715
38.669
38.2421
38.2985
38.8634
39.7791
40.9751
42.1869
43.4872
44.225
36.446
33.279
31.3534
30.8815
31.1121
31.9357
33.183
34.6048
35.8658
36.8013
37.4444
37.3598
33.4697
27.3975
25.0842
24.7913
25.4071
26.6222
28.1636
29.666
30.8167
31.5654
31.9347
31.7049
36.9405
23.3102
20.2811
19.9881
20.793
22.1374
23.7167
25.1521
26.2061
26.8801
27.214
27.1621
43.8436
43.5605
43.233
42.9129
42.7178
42.5914
42.514
42.4776
42.494
42.5547
42.6533
42.7563
36.5809
36.2063
35.8882
35.6599
35.5559
35.5387
35.6134
35.8017
36.1138
36.4774
36.7736
36.8456
31.1517
30.9816
30.8695
30.8141
30.7961
30.8039
30.8851
31.0952
31.551
32.1893
32.8857
33.4026
26.9863
27.0654
27.1629
27.2356
27.2372
27.1271
27.0126
27.026
27.3418
28.1618
30.0515
33.5957
42.72
41.0484
39.4741
38.6716
38.2448
38.3012
38.8663
39.782
40.978
42.1899
43.49
44.2278
36.4501
33.2824
31.3566
30.8846
31.1152
31.9388
33.1861
34.6077
35.8686
36.8039
37.4471
37.3621
33.4751
27.4016
25.0878
24.7947
25.4104
26.6254
28.1666
29.6688
30.8192
31.5678
31.9369
31.707
36.9489
23.3147
20.2848
19.9915
20.7962
22.1405
23.7196
25.1546
26.2083
26.8822
27.216
27.164
43.8461
43.5629
43.235
42.9143
42.7188
42.592
42.5143
42.4776
42.4939
42.5547
42.6536
42.7573
36.5832
36.2082
35.8898
35.6611
35.5568
35.5395
35.6142
35.8027
36.1153
36.4797
36.7769
36.85
31.1536
30.9834
30.871
30.8156
30.7976
30.8055
30.8869
31.0974
31.5546
32.1945
32.8926
33.4109
26.9881
27.0672
27.1647
27.2374
27.2393
27.1296
27.0157
27.0298
27.3473
28.1691
30.061
33.6085
42.7222
41.0511
39.4778
38.6764
38.2507
38.308
38.8741
39.7904
40.9871
42.1995
43.5005
44.2386
36.4562
33.2885
31.3634
30.8923
31.1237
31.948
33.1958
34.6178
35.8791
36.8147
37.4579
37.3728
33.4849
27.4101
25.0963
24.8037
25.4199
26.6354
28.177
29.6793
30.8297
31.5783
31.9473
31.7167
36.9654
23.3248
20.2939
20.0006
20.8057
22.1503
23.7297
25.1647
26.2183
26.8919
27.2252
27.1723
43.8572
43.5738
43.2458
42.925
42.7291
42.6019
42.5235
42.4859
42.5013
42.5608
42.6582
42.76
36.5934
36.2181
35.8992
35.67
35.5649
35.5466
35.6204
35.8074
36.1181
36.4804
36.7754
36.8463
31.1626
30.9917
30.8786
30.8222
30.803
30.8097
30.8898
31.0989
31.5525
32.1894
32.8847
33.401
26.9955
27.0737
27.1703
27.2419
27.2425
27.131
27.0151
27.0274
27.3412
28.1601
30.0489
33.5925
42.7219
41.0495
39.4746
38.6716
38.2445
38.3009
38.8661
39.7821
40.9784
42.1905
43.4913
44.2294
36.4493
33.2817
31.3559
30.884
31.1148
31.9387
33.1864
34.6086
35.87
36.8058
37.4494
37.3648
33.4726
27.3999
25.0866
24.7939
25.41
26.6256
28.1674
29.6704
30.8214
31.5703
31.94
31.7102
36.9445
23.3126
20.2835
19.9906
20.7958
22.1407
23.7206
25.1565
26.2109
26.885
27.2194
27.1674
23.5846
23.8745
24.1292
24.2703
24.1981
23.8339
23.2861
22.6527
22.023
21.462
21.3636
24.4388
20.6358
21.0737
21.4216
21.5757
21.3641
20.6662
19.5255
17.9353
15.7691
12.613
7.41372
3.0043
17.9642
18.4945
18.8823
19.0167
18.6596
17.6593
15.9972
13.6378
10.5043
6.58406
2.85056
1.75452
15.4975
16.0712
16.4712
16.5783
16.1231
14.9447
13.0055
10.3434
7.12609
3.89993
1.85397
1.6457
13.2267
13.8079
14.2059
14.2943
13.8111
12.6066
10.6549
8.09545
5.29025
2.92743
1.63364
1.61156
11.1744
11.7373
12.1255
12.209
11.7604
10.6555
8.87941
6.6387
4.35484
2.59913
1.61322
1.54316
9.37329
9.90049
10.2739
10.363
9.98707
9.06219
7.55454
5.69494
3.87451
2.51263
1.66714
1.39606
7.85978
8.34231
8.69697
8.79409
8.50855
7.79344
6.5737
5.07393
3.62401
2.51248
1.73493
1.19726
6.68242
7.12031
7.45474
7.56424
7.36612
6.83925
5.88345
4.68792
3.5191
2.56455
1.78173
0.947128
5.94624
6.35543
6.68201
6.80852
6.68346
6.2875
5.53179
4.56726
3.56478
2.67363
1.79817
0.664777
6.09096
6.53301
6.90117
7.06424
6.97834
6.5981
5.93175
5.06575
4.04576
2.99033
1.78967
0.379445
11.3096
12.2699
13.1304
13.5283
13.3467
12.5942
11.3205
9.50915
7.17169
4.4848
2.11193
0.507242
59.1726
19.8796
16.3128
16.1032
16.9819
18.3126
19.8047
21.1389
22.1365
22.8052
23.2208
23.4158
34.8781
15.117
12.8804
12.9093
13.8021
15.0492
16.4038
17.6269
18.5803
19.2828
19.7989
20.213
24.2915
11.4712
10.0862
10.2965
11.1529
12.2827
13.4854
14.5913
15.492
16.2131
16.821
17.39
17.6377
8.77744
7.87982
8.17373
8.96292
9.96161
11.0135
11.9966
12.835
13.549
14.2008
14.8484
12.9717
6.77482
6.15338
6.46629
7.1712
8.03787
8.94616
9.80683
10.5713
11.252
11.899
12.5602
9.50222
5.2587
4.80748
5.10523
5.72308
6.46578
7.24085
7.98598
8.66714
9.29269
9.90252
10.5339
6.9073
4.1104
3.75755
4.02813
4.56975
5.20342
5.85961
6.49855
7.09559
7.65567
8.20967
8.78593
4.97587
3.21195
2.93668
3.18189
3.66956
4.2152
4.77111
5.31743
5.83755
6.33246
6.82503
7.33713
3.47733
2.45274
2.28549
2.53072
2.99368
3.47798
3.95696
4.42988
4.88854
5.32907
5.76711
6.21991
2.27665
1.78076
1.76986
2.07616
2.56075
3.02238
3.45521
3.8798
4.29734
4.7015
5.10773
5.52286
1.3472
1.22671
1.43663
1.91765
2.4807
2.97354
3.4202
3.86431
4.31558
4.75368
5.1955
5.63984
1.00683
1.33808
2.28629
3.38218
4.26736
5.0411
5.81596
6.69091
7.65013
8.58584
9.48648
10.384
23.5868
23.8769
24.1318
24.273
24.2008
23.8365
23.2886
22.6551
22.0255
21.4647
21.3668
24.4437
20.6378
21.0759
21.4241
21.5784
21.3667
20.6687
19.5279
17.9376
15.7711
12.6149
7.41539
3.0056
17.9662
18.4967
18.8847
19.0194
18.6622
17.6619
15.9996
13.6399
10.5061
6.58553
2.85168
1.75555
15.4993
16.0734
16.4737
16.5809
16.1257
14.9473
13.0078
10.3455
7.12777
3.90121
1.85488
1.6467
13.2286
13.81
14.2083
14.2968
13.8137
12.6092
10.6572
8.09745
5.29186
2.92863
1.63448
1.61252
11.1764
11.7394
12.1278
12.2115
11.763
10.6581
8.88173
6.64067
4.3564
2.60033
1.61405
1.54409
9.37533
9.90259
10.2762
10.3655
9.9896
9.06467
7.5568
5.69686
3.87604
2.51384
1.66799
1.3969
7.86187
8.34438
8.69921
8.79647
8.51099
7.79584
6.57592
5.07581
3.62552
2.51369
1.73579
1.19798
6.68449
7.12235
7.45695
7.56655
7.36849
6.84158
5.88562
4.68978
3.52061
2.56574
1.78261
0.947692
5.94832
6.35757
6.68427
6.81086
6.68585
6.28984
5.53398
4.56916
3.56636
2.67486
1.79906
0.665173
6.09299
6.53555
6.90377
7.06693
6.98105
6.60075
5.93423
5.06793
4.04759
2.99174
1.79057
0.379665
11.3144
12.2748
13.1355
13.5337
13.3522
12.5995
11.3254
9.51335
7.17505
4.48697
2.113
0.507493
59.1884
19.8844
16.3163
16.1064
16.9849
18.3155
19.8073
21.1412
22.1385
22.8071
23.2225
23.4174
34.8886
15.1211
12.8836
12.9123
13.8049
15.0518
16.4062
17.629
18.5821
19.2844
19.8003
20.2145
24.2994
11.4747
10.0891
10.2992
11.1555
12.2851
13.4876
14.5932
15.4936
16.2145
16.8223
17.3913
17.6438
8.78037
7.88233
8.17612
8.96523
9.96382
11.0156
11.9984
12.8365
13.5503
14.2021
14.8496
12.9764
6.77726
6.15556
6.46842
7.17331
8.03992
8.94809
9.80855
10.5728
11.2533
11.9002
12.5613
9.50581
5.26071
4.80935
5.10712
5.725
6.46769
7.24267
7.98765
8.66862
9.29398
9.90368
10.535
6.90997
4.11202
3.75914
4.02981
4.57151
5.2052
5.86136
6.50018
7.09707
7.65698
8.21084
8.78704
4.97784
3.21325
2.93802
3.18338
3.67118
4.21687
4.77278
5.31903
5.83903
6.33379
6.82624
7.33827
3.47874
2.45376
2.28662
2.53206
2.99519
3.47956
3.95858
4.43146
4.89004
5.33043
5.76837
6.2211
2.27759
1.78154
1.77082
2.07743
2.56222
3.02395
3.45683
3.88141
4.29889
4.70294
5.10907
5.52416
1.34777
1.22731
1.43753
1.91897
2.48229
2.97525
3.42197
3.86612
4.31737
4.75536
5.19708
5.64139
1.00715
1.33873
2.288
3.38456
4.27013
5.04406
5.81906
6.69421
7.65344
8.58904
9.48956
10.3869
23.5885
23.8787
24.1337
24.2753
24.2035
23.8397
23.2925
22.6599
22.0316
21.4721
21.3749
24.4521
20.6394
21.0778
21.4262
21.5808
21.3698
20.6724
19.532
17.9422
15.7762
12.6196
7.41809
3.00624
17.9677
18.4986
18.8868
19.0219
18.6654
17.6655
16.0035
13.6438
10.5096
6.5878
2.85242
1.7558
15.5007
16.0751
16.4757
16.5833
16.1287
14.9507
13.0112
10.3485
7.12999
3.9023
1.85524
1.64692
13.2299
13.8116
14.2102
14.2991
13.8165
12.6122
10.6601
8.09977
5.29334
2.92927
1.63476
1.61275
11.1776
11.7408
12.1295
12.2135
11.7654
10.6606
8.88406
6.64247
4.35748
2.6008
1.61431
1.54432
9.37648
9.90387
10.2776
10.3673
9.99162
9.06674
7.55871
5.69829
3.8769
2.51424
1.66825
1.39712
7.863
8.34556
8.70055
8.798
8.51269
7.79756
6.57749
5.077
3.62626
2.51409
1.73608
1.19817
6.68565
7.12348
7.45821
7.56787
7.36995
6.84303
5.88694
4.69082
3.52128
2.56619
1.78292
0.947849
5.94957
6.35872
6.68548
6.81209
6.68715
6.29113
5.53516
4.57011
3.56702
2.67534
1.79938
0.665281
6.09446
6.53688
6.90508
7.06822
6.98242
6.60208
5.93544
5.06892
4.04834
2.99229
1.7909
0.379728
11.317
12.2773
13.1378
13.5362
13.3548
12.602
11.3278
9.51527
7.1765
4.48785
2.11341
0.507592
59.2207
19.895
16.325
16.115
16.9938
18.3247
19.8167
21.1505
22.1474
22.8157
23.2305
23.4244
34.9112
15.1304
12.8914
12.92
13.8128
15.06
16.4147
17.6373
18.5901
19.2919
19.8071
20.2201
24.3166
11.4824
10.0958
10.3058
11.1624
12.2923
13.4949
14.6004
15.5005
16.2209
16.8279
17.3959
17.657
8.7867
7.88791
8.18174
8.97109
9.96991
11.0218
12.0045
12.8423
13.5557
14.2067
14.8533
12.9864
6.7824
6.16014
6.47307
7.17818
8.04498
8.95323
9.81363
10.5777
11.2577
11.9039
12.5643
9.51332
5.26486
4.81307
5.1109
5.72898
6.47184
7.24689
7.9918
8.67257
9.29758
9.90675
10.5374
6.91555
4.11541
3.76213
4.03284
4.57472
5.20857
5.86478
6.50355
7.10028
7.6599
8.21333
8.78893
4.98192
3.21598
2.9404
3.18578
3.67375
4.2196
4.77555
5.32176
5.84163
6.33616
6.82824
7.33977
3.4816
2.45589
2.28849
2.53395
2.99726
3.48181
3.96087
4.43372
4.89218
5.33239
5.77003
6.22233
2.27947
1.7831
1.77225
2.07893
2.56396
3.02589
3.45885
3.88339
4.30076
4.70465
5.11053
5.52523
1.34887
1.22834
1.43864
1.92032
2.48396
2.9772
3.42404
3.86814
4.31927
4.75712
5.19861
5.64252
1.00798
1.33974
2.28969
3.38708
4.27332
5.04776
5.82298
6.69794
7.6571
8.59254
9.49265
10.3894
23.5944
23.8835
24.1375
24.2779
24.2043
23.8387
23.2896
22.6549
22.0238
21.462
21.3635
24.4406
20.6438
21.0809
21.4284
21.5818
21.3689
20.6698
19.5279
17.9367
15.7696
12.6132
7.41455
3.00561
17.9709
18.5005
18.8878
19.0216
18.6634
17.6622
15.9992
13.639
10.5052
6.58501
2.85165
1.75563
15.5031
16.0762
16.4758
16.5823
16.1262
14.9471
13.0072
10.3448
7.12731
3.90112
1.85487
1.64675
13.2317
13.8122
14.2098
14.2976
13.8138
12.6087
10.6566
8.09691
5.29159
2.92855
1.63441
1.61256
11.1789
11.7411
12.1288
12.2119
11.7628
10.6575
8.88106
6.64018
4.35615
2.60015
1.61394
1.54405
9.37752
9.904
10.2769
10.3657
9.98926
9.06406
7.55614
5.69637
3.87575
2.51357
1.66781
1.39683
7.86382
8.34567
8.69988
8.79656
8.51069
7.79529
6.57528
5.07533
3.62519
2.51339
1.73556
1.19788
6.68633
7.1236
7.45762
7.56667
7.36829
6.84113
5.88503
4.68932
3.52025
2.56543
1.78234
0.947589
5.95019
6.35888
6.68504
6.81109
6.68578
6.28951
5.53347
4.56872
3.56597
2.67453
1.79877
0.66508
6.09517
6.53713
6.90479
7.06734
6.98107
6.6005
5.93381
5.06751
4.04714
2.99133
1.79026
0.379597
11.3189
12.2784
13.1378
13.5345
13.3523
12.5991
11.3248
9.51257
7.17416
4.48632
2.1126
0.507369
59.1815
19.8822
16.315
16.1055
16.9846
18.3157
19.8083
21.1431
22.141
22.8101
23.2261
23.4205
34.8842
15.1193
12.8824
12.9114
13.8044
15.0518
16.4069
17.6306
18.5845
19.2874
19.8038
20.2164
24.2962
11.4731
10.0879
10.2982
11.1548
12.2849
13.4879
14.5943
15.4955
16.2171
16.8252
17.3928
17.6413
8.779
7.88116
8.1751
8.96443
9.96336
11.0156
11.999
12.8378
13.5522
14.2042
14.8509
12.9744
6.77607
6.15444
6.46736
7.17237
8.0392
8.94773
9.8087
10.5735
11.2544
11.9016
12.5624
9.50433
5.2597
4.80831
5.10604
5.72394
6.46675
7.24199
7.98736
8.66877
9.29452
9.90449
10.5356
6.90889
4.11121
3.7582
4.02874
4.57038
5.2041
5.8604
6.49952
7.09677
7.65703
8.21113
8.78722
4.97707
3.21262
2.93719
3.18234
3.67
4.21565
4.77163
5.31808
5.83837
6.33344
6.82609
7.33804
3.47824
2.4533
2.28591
2.53105
2.99398
3.47826
3.95728
4.43029
4.8891
5.32976
5.76789
6.22052
2.27731
1.78123
1.77021
2.07641
2.56096
3.02255
3.45538
3.88003
4.29771
4.70202
5.10833
5.52331
1.34766
1.22707
1.43692
1.91786
2.48086
2.97364
3.42028
3.86444
4.31586
4.75416
5.19609
5.64012
1.00717
1.33848
2.28666
3.38253
4.26763
5.04131
5.81613
6.69115
7.65066
8.58681
9.48764
10.3842
)
;

boundaryField
{
    rotor
    {
        lowReCorrection 0;
        type            epsilonWallFunction;
        value           nonuniform List<scalar> 
192
(
3.62805
3.03369
3.58409
3.57525
3.23422
2.74327
2.99319
6.74925
27.5851
43.1822
50.4757
55.5872
58.6203
60.1886
60.3345
59.9913
58.5539
55.4306
50.9781
44.7854
37.3206
28.233
18.6247
23.3548
3.63641
3.03926
3.58891
3.57971
3.23824
2.74587
2.99443
6.73656
27.56
43.1643
50.4604
55.5714
58.6064
60.1757
60.324
59.982
58.5478
55.4255
50.9758
44.7837
37.3206
28.2335
18.6259
23.3563
3.63532
3.03756
3.58665
3.57704
3.23482
2.74331
2.99375
6.75842
27.5986
43.1889
50.4806
55.5926
58.6256
60.1939
60.3395
59.9963
58.5573
55.4339
50.9804
44.7872
37.322
28.2334
18.6245
23.3538
3.63643
3.03918
3.58884
3.5796
3.23801
2.74584
2.99488
6.74294
27.5732
43.1753
50.4707
55.5825
58.6173
60.1865
60.3342
59.992
58.5564
55.4334
50.9821
44.7889
37.324
28.2359
18.6273
23.3588
3.62805
7.42989
9.28232
13.5145
15.4823
16.4095
16.5376
16.5799
17.3508
19.3987
24.0868
112.007
23.3588
75.571
120.446
152.55
177.992
200.95
221.446
246.226
275.298
306.199
344.763
408.791
3.63641
7.43604
9.28731
13.5159
15.4803
16.404
16.5335
16.5766
17.3494
19.3989
24.0884
112.018
23.3548
75.561
120.434
152.536
177.975
200.931
221.425
246.2
275.269
306.167
344.729
408.757
3.63532
7.43509
9.28703
13.5209
15.489
16.4163
16.5425
16.5831
17.3512
19.396
24.0837
112.026
23.3563
75.5648
120.438
152.54
177.98
200.937
221.432
246.209
275.281
306.182
344.747
408.779
3.63643
7.43629
9.28777
13.5167
15.4812
16.405
16.5342
16.5771
17.3498
19.3999
24.0908
112.035
23.3538
75.56
120.437
152.545
177.989
200.951
221.45
246.233
275.309
306.215
344.786
408.83
)
;
    }
    stator
    {
        lowReCorrection 0;
        type            epsilonWallFunction;
        value           nonuniform List<scalar> 
192
(
11.3096
12.2699
13.1304
13.5283
13.3467
12.5942
11.3205
9.50915
7.17169
4.4848
2.11193
0.507242
1.00683
1.33808
2.28629
3.38218
4.26736
5.0411
5.81596
6.69091
7.65013
8.58584
9.48648
10.384
11.3144
12.2748
13.1355
13.5337
13.3522
12.5995
11.3254
9.51335
7.17505
4.48697
2.113
0.507493
1.00715
1.33873
2.288
3.38456
4.27013
5.04406
5.81906
6.69421
7.65344
8.58904
9.48956
10.3869
11.317
12.2773
13.1378
13.5362
13.3548
12.602
11.3278
9.51527
7.1765
4.48785
2.11341
0.507592
1.00798
1.33974
2.28969
3.38708
4.27332
5.04776
5.82298
6.69794
7.6571
8.59254
9.49265
10.3894
11.3189
12.2784
13.1378
13.5345
13.3523
12.5991
11.3248
9.51257
7.17416
4.48632
2.1126
0.507369
1.00717
1.33848
2.28666
3.38253
4.26763
5.04131
5.81613
6.69115
7.65066
8.58681
9.48764
10.3842
59.1726
34.8781
24.2915
17.6377
12.9717
9.50222
6.9073
4.97587
3.47733
2.27665
1.3472
1.00683
24.4388
3.0043
1.75452
1.6457
1.61156
1.54316
1.39606
1.19726
0.947128
0.664777
0.379445
0.507242
59.1884
34.8886
24.2994
17.6438
12.9764
9.50581
6.90997
4.97784
3.47874
2.27759
1.34777
1.00715
24.4437
3.0056
1.75555
1.6467
1.61252
1.54409
1.3969
1.19798
0.947692
0.665173
0.379665
0.507493
59.2207
34.9112
24.3166
17.657
12.9864
9.51332
6.91555
4.98192
3.4816
2.27947
1.34887
1.00798
24.4521
3.00624
1.7558
1.64692
1.61275
1.54432
1.39712
1.19817
0.947849
0.665281
0.379728
0.507592
59.1815
34.8842
24.2962
17.6413
12.9744
9.50433
6.90889
4.97707
3.47824
2.27731
1.34766
1.00717
24.4406
3.00561
1.75563
1.64675
1.61256
1.54405
1.39683
1.19788
0.947589
0.66508
0.379597
0.507369
)
;
    }
    front
    {
        type            empty;
    }
    back
    {
        type            empty;
    }
}


// ************************************************************************* //
