/*--------------------------------*- C++ -*----------------------------------*\
| =========                 |                                                 |
| \\      /  F ield         | OpenFOAM: The Open Source CFD Toolbox           |
|  \\    /   O peration     | Version:  v1912                                 |
|   \\  /    A nd           | Website:  www.openfoam.com                      |
|    \\/     M anipulation  |                                                 |
\*---------------------------------------------------------------------------*/
FoamFile
{
    version     2.0;
    format      ascii;
    class       volScalarField;
    location    "400";
    object      k;
}
// * * * * * * * * * * * * * * * * * * * * * * * * * * * * * * * * * * * * * //

dimensions      [0 2 -2 0 0 0 0];


internalField   nonuniform List<scalar> 
3072
(
0.034099
0.0452995
0.0506187
0.0505386
0.0472841
0.0423558
0.0448434
0.0767134
0.196756
0.265686
0.294922
0.31453
0.0591803
0.108492
0.11047
0.104731
0.0864693
0.105257
0.181334
0.208959
0.287687
0.359583
0.429052
0.496436
0.0733667
0.133256
0.174925
0.200046
0.203273
0.20035
0.257031
0.334425
0.43054
0.51581
0.593229
0.658707
0.100122
0.193946
0.222942
0.224138
0.227953
0.271107
0.36419
0.459423
0.549932
0.627599
0.6957
0.752303
0.115876
0.227141
0.249215
0.250346
0.285235
0.368
0.465547
0.557749
0.639054
0.707764
0.767218
0.817066
0.126795
0.250475
0.280549
0.301522
0.364518
0.456298
0.550361
0.63511
0.707314
0.768091
0.820464
0.86491
0.133698
0.265891
0.309962
0.36259
0.44723
0.542405
0.631587
0.708846
0.773289
0.826838
0.872424
0.911238
0.140047
0.285928
0.358109
0.450723
0.555915
0.653704
0.736743
0.804464
0.858695
0.902309
0.938505
0.969054
0.150548
0.323951
0.456497
0.59657
0.722259
0.820548
0.893124
0.945699
0.983602
1.01106
1.03224
1.04931
0.168699
0.399361
0.640258
0.83409
0.972933
1.06229
1.11503
1.14361
1.15689
1.15983
1.15891
1.15597
0.202258
0.550052
0.943026
1.18154
1.30698
1.36616
1.38518
1.38034
1.36091
1.33439
1.30603
1.27842
0.583609
0.951734
1.36651
1.55635
1.62495
1.63622
1.62154
1.58503
1.53879
1.48763
1.4362
1.38697
0.325926
0.33175
0.332334
0.331051
0.325782
0.314103
0.297084
0.272517
0.241358
0.200385
0.15186
0.117977
0.556844
0.604383
0.635832
0.647839
0.644073
0.633183
0.61635
0.59003
0.54374
0.447369
0.328248
0.277932
0.710098
0.745296
0.764384
0.770264
0.768299
0.762442
0.754062
0.740406
0.712247
0.646501
0.489872
0.405401
0.796311
0.828408
0.849251
0.861031
0.86702
0.870745
0.87479
0.877854
0.872646
0.83706
0.69888
0.504209
0.85673
0.886903
0.908408
0.923218
0.934464
0.945847
0.960673
0.979496
0.992423
0.981508
0.875971
0.590746
0.901342
0.930344
0.952807
0.970619
0.986891
1.00567
1.03097
1.06443
1.10087
1.11703
1.05732
0.67421
0.943765
0.970662
0.992891
1.0123
1.03199
1.05633
1.09025
1.13689
1.19275
1.23538
1.21688
0.754394
0.99495
1.01704
1.03636
1.05463
1.07487
1.10175
1.14133
1.19901
1.2738
1.34257
1.35532
0.846465
1.06374
1.07665
1.08908
1.10258
1.11975
1.14532
1.1865
1.25184
1.3447
1.44142
1.47404
0.950657
1.153
1.1516
1.15285
1.15793
1.16862
1.1892
1.22742
1.29555
1.40397
1.53362
1.60289
1.06136
1.25387
1.2342
1.22052
1.21523
1.22011
1.2341
1.2659
1.32978
1.44524
1.61183
1.75032
1.19206
1.34296
1.30708
1.28046
1.26488
1.26535
1.27527
1.30095
1.35618
1.46307
1.65109
1.89353
1.38317
0.0341431
0.045353
0.0506638
0.050581
0.0473237
0.0423831
0.0448543
0.0766215
0.196639
0.265615
0.294864
0.314472
0.0592126
0.108545
0.110525
0.104791
0.0865281
0.105253
0.181302
0.20889
0.287556
0.359471
0.428914
0.496299
0.0733934
0.133291
0.174955
0.200087
0.203307
0.200343
0.25689
0.33428
0.430369
0.51564
0.593052
0.658533
0.10013
0.193966
0.222973
0.22417
0.227914
0.270964
0.364013
0.459249
0.549751
0.627413
0.695511
0.752116
0.115868
0.227124
0.249179
0.250275
0.28509
0.367833
0.465373
0.557574
0.638873
0.707577
0.767025
0.816873
0.126768
0.25043
0.280477
0.301406
0.364368
0.456143
0.550203
0.634946
0.707144
0.767911
0.820279
0.86472
0.133678
0.265839
0.30988
0.362474
0.447101
0.542276
0.631452
0.708706
0.77314
0.82668
0.872258
0.911067
0.140031
0.285895
0.358048
0.450647
0.555835
0.653621
0.736653
0.804367
0.858588
0.902192
0.938378
0.968919
0.15054
0.323945
0.456484
0.59656
0.722251
0.820538
0.893105
0.945669
0.983559
1.011
1.03217
1.04923
0.1687
0.399381
0.640295
0.83415
0.973004
1.06237
1.11509
1.14366
1.15692
1.15985
1.15891
1.15595
0.202266
0.550084
0.9431
1.18165
1.30711
1.36629
1.38531
1.38045
1.36101
1.33447
1.30609
1.27847
0.583642
0.951786
1.36659
1.55645
1.62508
1.63636
1.62169
1.58517
1.53892
1.48774
1.4363
1.38706
0.325876
0.331704
0.332298
0.331019
0.325761
0.314086
0.297076
0.272511
0.241359
0.200388
0.151867
0.117983
0.556712
0.60426
0.635731
0.647758
0.644006
0.633131
0.616313
0.590005
0.543726
0.447366
0.328254
0.277942
0.709931
0.745142
0.764249
0.770154
0.768209
0.762367
0.754006
0.740368
0.712223
0.64649
0.489874
0.405411
0.79613
0.828237
0.849096
0.860895
0.866903
0.870647
0.874712
0.8778
0.87261
0.837042
0.698878
0.504218
0.85654
0.886721
0.908238
0.923064
0.934329
0.945733
0.960581
0.979428
0.992377
0.981486
0.875971
0.590758
0.901154
0.930161
0.952633
0.970459
0.986748
1.00555
1.03087
1.06435
1.10082
1.11701
1.05732
0.674224
0.943593
0.970492
0.992727
1.01214
1.03185
1.05621
1.09015
1.13682
1.19271
1.23536
1.21689
0.754412
0.99481
1.0169
1.03622
1.0545
1.07475
1.10165
1.14124
1.19894
1.27376
1.34256
1.35533
0.846487
1.06365
1.07655
1.08898
1.10248
1.11966
1.14524
1.18643
1.25178
1.34467
1.44142
1.47407
0.950684
1.15297
1.15156
1.1528
1.15788
1.16857
1.18915
1.22737
1.29552
1.40395
1.53363
1.60293
1.06139
1.2539
1.23421
1.22052
1.21522
1.2201
1.23409
1.26588
1.32977
1.44524
1.61186
1.75037
1.19211
1.34303
1.30713
1.2805
1.26491
1.26538
1.27529
1.30098
1.3562
1.46309
1.65113
1.8936
1.38322
0.0341358
0.0453355
0.0506417
0.0505552
0.0472897
0.0423563
0.0448502
0.0767832
0.196822
0.265715
0.294942
0.314551
0.0592062
0.108529
0.110489
0.104715
0.0864372
0.105275
0.181344
0.208986
0.287758
0.359638
0.429125
0.49651
0.0733901
0.1333
0.174955
0.200003
0.203201
0.200314
0.257117
0.334513
0.430644
0.515908
0.59333
0.658806
0.100153
0.193979
0.22292
0.224071
0.227948
0.271207
0.364323
0.459545
0.55005
0.627711
0.695812
0.752413
0.115909
0.22718
0.249236
0.250377
0.285346
0.368145
0.465688
0.557877
0.639174
0.70788
0.767334
0.817184
0.12683
0.250529
0.280606
0.301617
0.364658
0.456441
0.550495
0.635234
0.707435
0.768212
0.82059
0.865039
0.133724
0.265941
0.310035
0.362699
0.447359
0.542536
0.631717
0.708977
0.773423
0.826976
0.872569
0.911389
0.140065
0.285954
0.358166
0.450806
0.556015
0.65382
0.736873
0.804608
0.858851
0.902474
0.938678
0.969233
0.15055
0.323939
0.456514
0.596607
0.722321
0.820642
0.89325
0.945854
0.98378
1.01125
1.03244
1.04952
0.168683
0.399316
0.640242
0.834093
0.972965
1.06237
1.11515
1.14377
1.15708
1.16004
1.15913
1.1562
0.20224
0.55002
0.943018
1.18155
1.30701
1.36623
1.38528
1.3805
1.36111
1.3346
1.30625
1.27866
0.583673
0.951806
1.36658
1.5564
1.62501
1.6363
1.62165
1.58517
1.53896
1.48782
1.43641
1.38719
0.325947
0.33177
0.332353
0.331071
0.325796
0.314117
0.297094
0.272525
0.241365
0.200388
0.15186
0.117974
0.55692
0.604458
0.635901
0.647902
0.644132
0.633237
0.616398
0.590069
0.543768
0.447388
0.328252
0.27793
0.710196
0.745391
0.764477
0.770353
0.768384
0.762522
0.754137
0.740474
0.712307
0.646549
0.489897
0.405409
0.796421
0.828517
0.849361
0.86114
0.867127
0.87085
0.874891
0.877948
0.872733
0.837133
0.698932
0.504229
0.85685
0.887026
0.908533
0.923345
0.934593
0.945977
0.9608
0.979619
0.99254
0.981611
0.876047
0.590779
0.901477
0.930483
0.952951
0.970766
0.987042
1.00582
1.03112
1.06458
1.10101
1.11716
1.05742
0.674256
0.943921
0.970823
0.993056
1.01247
1.03216
1.05651
1.09043
1.13707
1.19293
1.23555
1.21701
0.754453
0.995134
1.01723
1.03655
1.05483
1.07507
1.10195
1.14154
1.19922
1.27401
1.34276
1.35547
0.84654
1.06395
1.07686
1.0893
1.10279
1.11997
1.14554
1.18673
1.25207
1.34494
1.44165
1.47422
0.950749
1.15323
1.15183
1.15308
1.15816
1.16886
1.18943
1.22766
1.29581
1.40423
1.53388
1.6031
1.06147
1.25411
1.23443
1.22075
1.21546
1.22034
1.23434
1.26614
1.33005
1.44552
1.61212
1.75055
1.19219
1.34318
1.30729
1.28068
1.2651
1.26558
1.2755
1.3012
1.35645
1.46336
1.65139
1.89379
1.38334
0.0341432
0.0453522
0.050663
0.0505799
0.0473213
0.0423826
0.0448594
0.0766695
0.196702
0.26566
0.294904
0.314514
0.0592141
0.108548
0.110526
0.104788
0.0865258
0.105278
0.181329
0.208925
0.287622
0.359533
0.428992
0.49638
0.073396
0.133299
0.174968
0.200099
0.20332
0.200365
0.256943
0.334345
0.43045
0.515725
0.593144
0.658627
0.100134
0.193978
0.222989
0.224187
0.22794
0.271012
0.364079
0.459324
0.549834
0.627501
0.695605
0.752212
0.115873
0.22714
0.249203
0.250303
0.28513
0.367886
0.465439
0.557648
0.638954
0.707664
0.767117
0.816969
0.126774
0.250447
0.280499
0.301434
0.364407
0.456193
0.550263
0.635014
0.70722
0.767994
0.820367
0.864814
0.133682
0.265851
0.309896
0.362495
0.447133
0.542319
0.631505
0.708767
0.77321
0.826758
0.872343
0.911158
0.140033
0.285903
0.358062
0.450667
0.555864
0.65366
0.736701
0.804423
0.858652
0.902264
0.938458
0.969006
0.150543
0.323954
0.456503
0.596591
0.722289
0.82058
0.893154
0.945723
0.98362
1.01107
1.03224
1.04931
0.168706
0.399405
0.640336
0.8342
0.973056
1.06242
1.11515
1.14372
1.15698
1.15992
1.15898
1.15603
0.202279
0.550137
0.943168
1.18172
1.30717
1.36636
1.38537
1.38051
1.36107
1.33454
1.30616
1.27854
0.583701
0.951895
1.3667
1.55655
1.62517
1.63644
1.62176
1.58524
1.53899
1.48782
1.43638
1.38713
0.325916
0.331744
0.332335
0.331055
0.325793
0.314115
0.297101
0.272532
0.241374
0.2004
0.151875
0.117991
0.556797
0.604346
0.635811
0.647833
0.644076
0.633196
0.616371
0.590057
0.543771
0.447398
0.328273
0.277957
0.710027
0.745236
0.764338
0.770238
0.768288
0.762442
0.754075
0.74043
0.712278
0.646537
0.489903
0.405428
0.796228
0.828335
0.849192
0.860987
0.866992
0.870732
0.874791
0.877871
0.872674
0.837097
0.698921
0.504241
0.856639
0.886821
0.908338
0.923162
0.934425
0.945825
0.960669
0.979509
0.992452
0.981552
0.876022
0.590783
0.901252
0.930261
0.952735
0.970561
0.98685
1.00565
1.03097
1.06444
1.1009
1.11708
1.05738
0.674253
0.943689
0.970592
0.99283
1.01225
1.03195
1.05632
1.09026
1.13692
1.1928
1.23545
1.21696
0.754445
0.994903
1.017
1.03632
1.05461
1.07486
1.10176
1.14135
1.19905
1.27387
1.34265
1.35541
0.846525
1.06374
1.07664
1.08908
1.10258
1.11977
1.14535
1.18654
1.2519
1.34479
1.44152
1.47415
0.950724
1.15306
1.15165
1.1529
1.15798
1.16868
1.18926
1.22749
1.29564
1.40407
1.53374
1.60301
1.06143
1.25398
1.2343
1.22062
1.21532
1.2202
1.2342
1.266
1.32989
1.44535
1.61196
1.75045
1.19214
1.34311
1.30722
1.2806
1.26501
1.26549
1.2754
1.30108
1.35631
1.46319
1.65121
1.89366
1.38325
1.70238
1.69999
1.71546
1.73109
1.73707
1.72847
1.70507
1.66519
1.61607
1.55964
1.50114
1.44311
1.71508
1.67088
1.65178
1.64602
1.64449
1.63842
1.62518
1.60356
1.57091
1.52608
1.47734
1.42605
1.6188
1.58181
1.54979
1.52542
1.50599
1.48947
1.47386
1.45721
1.43762
1.41309
1.38349
1.34947
1.48443
1.4568
1.42314
1.38708
1.35663
1.33055
1.30877
1.29124
1.27778
1.26636
1.257
1.25089
1.39018
1.34755
1.31616
1.29757
1.29716
1.30594
1.32833
1.37452
1.46026
1.62437
1.90622
1.82714
1.37897
1.34388
1.32008
1.30901
1.31134
1.32144
1.34286
1.38122
1.44362
1.54744
1.77077
1.77427
1.32174
1.30748
1.30074
1.30157
1.30819
1.32116
1.34027
1.36809
1.41194
1.46951
1.60799
1.6447
1.25304
1.26334
1.26851
1.27474
1.28219
1.29274
1.30859
1.32978
1.36281
1.39584
1.47323
1.50261
1.70241
1.70005
1.71553
1.73119
1.73719
1.72859
1.7052
1.66533
1.6162
1.55976
1.50125
1.44321
1.71511
1.67096
1.65187
1.64612
1.64461
1.63854
1.6253
1.60369
1.57104
1.5262
1.47746
1.42615
1.61882
1.5819
1.5499
1.52554
1.50611
1.48959
1.47399
1.45734
1.43775
1.41321
1.38361
1.34958
1.48442
1.45686
1.42326
1.3872
1.35675
1.33067
1.30889
1.29136
1.2779
1.26648
1.25712
1.251
1.39027
1.34762
1.31623
1.29763
1.29721
1.30599
1.32838
1.37457
1.46031
1.62443
1.90629
1.82721
1.37907
1.34397
1.32016
1.30908
1.31142
1.32152
1.34293
1.3813
1.4437
1.54753
1.77085
1.77434
1.32184
1.30758
1.30083
1.30166
1.30829
1.32126
1.34036
1.36819
1.41205
1.46961
1.6081
1.6448
1.25315
1.26345
1.26862
1.27485
1.28229
1.29285
1.30871
1.3299
1.36293
1.39596
1.47335
1.50272
1.70249
1.70012
1.71559
1.73121
1.73718
1.72858
1.70518
1.66533
1.61622
1.5598
1.50131
1.44329
1.71519
1.67104
1.65195
1.64618
1.64465
1.63856
1.62532
1.60371
1.57105
1.52622
1.47749
1.4262
1.61891
1.582
1.54999
1.52562
1.50618
1.48964
1.47403
1.45737
1.43777
1.41323
1.38362
1.3496
1.48453
1.45696
1.42335
1.38728
1.35682
1.33073
1.30894
1.2914
1.27792
1.2665
1.25714
1.25102
1.39036
1.34773
1.31636
1.29777
1.29737
1.30615
1.32856
1.37478
1.46055
1.62469
1.9065
1.82738
1.37913
1.34404
1.32024
1.30919
1.31153
1.32165
1.34309
1.38148
1.44392
1.54776
1.7711
1.77456
1.32187
1.30762
1.3009
1.30174
1.30839
1.32138
1.34051
1.36836
1.41225
1.46985
1.60836
1.64505
1.25319
1.26351
1.2687
1.27495
1.28243
1.293
1.30889
1.33011
1.36316
1.39622
1.47363
1.503
1.70259
1.7002
1.71568
1.73134
1.73733
1.72873
1.70533
1.66545
1.61631
1.55986
1.50135
1.4433
1.71539
1.6712
1.6521
1.64635
1.64483
1.63875
1.6255
1.60387
1.5712
1.52634
1.47759
1.42627
1.61916
1.58222
1.5502
1.52582
1.50639
1.48985
1.47424
1.45757
1.43796
1.4134
1.38377
1.34973
1.4848
1.45721
1.42358
1.3875
1.35704
1.33095
1.30915
1.2916
1.27811
1.26667
1.25729
1.25116
1.39036
1.34773
1.31634
1.29774
1.29732
1.30609
1.32847
1.37465
1.46038
1.62449
1.90632
1.82723
1.37919
1.34409
1.32028
1.30919
1.31152
1.32161
1.343
1.38136
1.44374
1.54755
1.77086
1.77434
1.32199
1.30771
1.30094
1.30176
1.30836
1.32131
1.3404
1.36821
1.41205
1.46961
1.60808
1.64478
1.25328
1.26355
1.26869
1.2749
1.28232
1.29286
1.3087
1.32988
1.36291
1.39594
1.47333
1.50272
1.32332
1.28603
1.24855
1.21363
1.18562
1.1635
1.14746
1.13773
1.1345
1.13683
1.14875
1.16992
1.19357
1.15784
1.12397
1.0936
1.0687
1.04882
1.0347
1.02683
1.02524
1.02826
1.04005
1.06005
1.09124
1.06228
1.03444
1.00821
0.984167
0.962333
0.943802
0.929266
0.918407
0.910479
0.908573
0.917514
1.00756
0.986843
0.965162
0.941788
0.91625
0.888694
0.860129
0.831169
0.801255
0.769367
0.739232
0.730655
1.1928
1.2044
1.20254
1.20807
1.21972
1.23827
1.26311
1.29135
1.32196
1.34937
1.37442
1.36464
1.08481
1.09699
1.08966
1.09767
1.11751
1.14636
1.18042
1.21402
1.24056
1.25721
1.26265
1.23705
0.95119
0.97801
0.972536
0.98419
1.01106
1.04706
1.08686
1.12092
1.14386
1.15601
1.15391
1.12711
0.775024
0.851321
0.857976
0.875109
0.907095
0.94709
0.989215
1.02268
1.04426
1.05539
1.05313
1.03278
1.32338
1.28612
1.24867
1.21375
1.18574
1.16362
1.14757
1.13784
1.1346
1.13693
1.14885
1.17003
1.19366
1.15795
1.12409
1.09372
1.06881
1.04893
1.0348
1.02692
1.02534
1.02836
1.04015
1.06016
1.09134
1.06239
1.03455
1.00833
0.984274
0.962431
0.943893
0.929352
0.918492
0.910566
0.908668
0.917621
1.00767
0.986951
0.965276
0.941898
0.916352
0.888787
0.860214
0.831249
0.80133
0.769441
0.739311
0.730741
1.19291
1.20451
1.20266
1.20819
1.21985
1.2384
1.26323
1.29147
1.32208
1.34948
1.37453
1.36474
1.08493
1.09712
1.0898
1.09781
1.11765
1.1465
1.18055
1.21415
1.24068
1.25732
1.26276
1.23715
0.951319
0.978151
0.972687
0.984344
1.01121
1.04721
1.087
1.12105
1.14398
1.15613
1.15401
1.1272
0.775145
0.851464
0.858131
0.875267
0.907251
0.94724
0.989355
1.0228
1.04437
1.0555
1.05323
1.03286
1.32348
1.28621
1.24875
1.21382
1.1858
1.16367
1.14762
1.13788
1.13464
1.13697
1.1489
1.17011
1.19375
1.15803
1.12416
1.09378
1.06887
1.04898
1.03484
1.02697
1.02539
1.02843
1.04025
1.06029
1.09142
1.06246
1.03462
1.00839
0.984333
0.962489
0.943953
0.929418
0.91857
0.910664
0.908797
0.917787
1.00775
0.987024
0.965345
0.941966
0.91642
0.888856
0.860289
0.831332
0.801427
0.769559
0.739457
0.730912
1.19302
1.20464
1.20282
1.20838
1.22005
1.23863
1.26348
1.29174
1.32236
1.34977
1.37482
1.36502
1.0851
1.09731
1.09002
1.09806
1.11791
1.14678
1.18084
1.21445
1.24098
1.25762
1.26305
1.23742
0.951537
0.978392
0.972953
0.984625
1.01151
1.04752
1.0873
1.12136
1.14429
1.15642
1.15429
1.12746
0.775376
0.851732
0.858415
0.875562
0.907554
0.947549
0.989665
1.02311
1.04467
1.05579
1.05349
1.0331
1.32374
1.28646
1.24898
1.21403
1.186
1.16386
1.14779
1.13803
1.13476
1.13707
1.14896
1.17011
1.194
1.15825
1.12437
1.09397
1.06904
1.04913
1.03496
1.02706
1.02544
1.02844
1.04019
1.06017
1.09165
1.06267
1.0348
1.00855
0.984464
0.962591
0.944019
0.929443
0.918549
0.910593
0.90866
0.91759
1.00795
0.987196
0.965488
0.942082
0.916508
0.888911
0.860304
0.831302
0.801351
0.769433
0.739274
0.730696
1.19295
1.20454
1.20266
1.20817
1.21981
1.23837
1.2632
1.29144
1.32206
1.34947
1.37453
1.36476
1.08492
1.09708
1.08975
1.09776
1.11759
1.14644
1.18051
1.21413
1.24068
1.25733
1.26279
1.23719
0.951267
0.978089
0.972615
0.984269
1.01114
1.04715
1.08695
1.12103
1.14398
1.15614
1.15406
1.12725
0.775086
0.85139
0.858048
0.875183
0.907172
0.947173
0.989307
1.02278
1.04438
1.05552
1.05328
1.03293
0.934196
0.921509
0.905455
0.883994
0.855658
0.820075
0.777476
0.727505
0.667166
0.587182
0.458455
0.272554
0.865141
0.859618
0.848591
0.828728
0.797551
0.753704
0.696235
0.623699
0.531584
0.408789
0.223295
0.0689503
0.796891
0.797412
0.790945
0.772888
0.739957
0.689789
0.620576
0.531101
0.41956
0.286125
0.1398
0.0492487
0.728317
0.733415
0.73106
0.715322
0.682427
0.629362
0.554181
0.457428
0.342791
0.223206
0.121305
0.0482135
0.659273
0.667771
0.66881
0.655955
0.62503
0.572848
0.497816
0.402754
0.296062
0.195236
0.118089
0.0485442
0.590256
0.601149
0.604855
0.595187
0.567829
0.519762
0.449689
0.362177
0.267776
0.182527
0.117469
0.04812
0.521835
0.534244
0.540016
0.533461
0.510664
0.469019
0.406877
0.329722
0.248102
0.174828
0.116121
0.0459012
0.454379
0.467541
0.474759
0.470879
0.453102
0.419116
0.366345
0.300309
0.230492
0.166619
0.111593
0.0422276
0.387541
0.400668
0.408743
0.40708
0.393863
0.367603
0.325149
0.269866
0.210537
0.154491
0.102001
0.036793
0.318848
0.331174
0.339509
0.339478
0.330027
0.310602
0.278956
0.234188
0.184218
0.135287
0.0854002
0.0295853
0.239063
0.24953
0.257238
0.258275
0.252112
0.238113
0.217036
0.185688
0.144509
0.103455
0.0583005
0.0207161
0.107326
0.113315
0.118545
0.120916
0.119825
0.11527
0.107355
0.0955688
0.0791748
0.0578954
0.0350395
0.0135369
0.49163
0.713707
0.745583
0.77148
0.807224
0.849099
0.891609
0.924793
0.946602
0.958752
0.960048
0.948803
0.353746
0.587235
0.639316
0.674008
0.712398
0.754791
0.796639
0.829833
0.852844
0.86702
0.872806
0.870475
0.284243
0.485396
0.544013
0.5838
0.623559
0.665417
0.705952
0.739079
0.763453
0.779888
0.790009
0.794747
0.234648
0.402485
0.460333
0.501643
0.54142
0.581846
0.620541
0.653168
0.67843
0.697075
0.710661
0.720665
0.195232
0.333601
0.38725
0.42772
0.466302
0.504559
0.540941
0.572512
0.597977
0.618072
0.634278
0.647876
0.161902
0.274763
0.323265
0.361642
0.398147
0.433673
0.467335
0.497294
0.5223
0.54298
0.56067
0.57646
0.133494
0.222702
0.266765
0.302619
0.336554
0.368947
0.399568
0.427429
0.451406
0.471896
0.490034
0.506757
0.109347
0.175475
0.216206
0.249627
0.280744
0.309737
0.337074
0.362453
0.384941
0.404613
0.422355
0.439005
0.0877256
0.132753
0.170243
0.201414
0.229442
0.254802
0.278634
0.301233
0.321856
0.340211
0.356895
0.372686
0.0673504
0.09458
0.127634
0.156042
0.180184
0.201451
0.221457
0.240998
0.259441
0.276059
0.291071
0.305292
0.0483134
0.061358
0.0862563
0.108916
0.126976
0.142863
0.158133
0.173937
0.189642
0.203863
0.21622
0.227865
0.0214256
0.0259018
0.0370262
0.0480645
0.0561111
0.0626877
0.0689357
0.0756636
0.0827186
0.089325
0.0954631
0.10139
0.934301
0.921614
0.905566
0.884103
0.855759
0.820167
0.777559
0.72758
0.667232
0.587242
0.458506
0.272588
0.865249
0.859722
0.848699
0.828836
0.797653
0.753798
0.696319
0.623773
0.531647
0.408842
0.223338
0.0689699
0.796999
0.797515
0.791053
0.772997
0.740062
0.689887
0.620664
0.531177
0.419626
0.286181
0.139842
0.0492676
0.728426
0.733518
0.731167
0.715432
0.682535
0.629464
0.554273
0.457509
0.342861
0.223264
0.121347
0.0482328
0.659384
0.667874
0.668917
0.656066
0.625141
0.572954
0.497913
0.40284
0.296135
0.195295
0.118132
0.0485634
0.590368
0.601252
0.604961
0.595297
0.56794
0.519869
0.449788
0.362264
0.26785
0.182586
0.117512
0.0481392
0.521944
0.534345
0.540119
0.533568
0.510772
0.469125
0.406975
0.329809
0.248176
0.174885
0.116163
0.0459193
0.454484
0.467638
0.474859
0.470982
0.453206
0.419218
0.366441
0.300394
0.230564
0.166675
0.111634
0.0422443
0.387639
0.400759
0.408837
0.407176
0.39396
0.367698
0.325239
0.269946
0.210603
0.154543
0.102038
0.0368074
0.318934
0.331255
0.339592
0.339563
0.330113
0.310686
0.279035
0.234259
0.184277
0.135333
0.0854319
0.0295969
0.239129
0.249595
0.257305
0.258343
0.252181
0.23818
0.2171
0.185745
0.144557
0.103491
0.0583227
0.020724
0.107357
0.113345
0.118575
0.120948
0.119857
0.115302
0.107385
0.0955965
0.0791992
0.0579138
0.0350511
0.0135413
0.491716
0.713846
0.745735
0.771637
0.807379
0.849247
0.891748
0.924916
0.946712
0.958852
0.960137
0.948883
0.353815
0.587364
0.639462
0.67416
0.712548
0.754936
0.796774
0.829953
0.85295
0.867115
0.872891
0.87055
0.284303
0.485514
0.54415
0.583945
0.623704
0.665558
0.706083
0.739196
0.763555
0.77998
0.79009
0.794819
0.2347
0.402592
0.46046
0.501779
0.541558
0.58198
0.620668
0.653282
0.678531
0.697163
0.710739
0.720734
0.195278
0.333697
0.387366
0.427847
0.466432
0.504687
0.541064
0.572623
0.598074
0.618157
0.634353
0.647943
0.161942
0.274848
0.32337
0.361759
0.398268
0.433794
0.467451
0.497401
0.522395
0.543064
0.560744
0.576525
0.133527
0.222776
0.266858
0.302724
0.336666
0.36906
0.399678
0.427531
0.451498
0.471978
0.490106
0.50682
0.109375
0.175537
0.216288
0.249721
0.280845
0.30984
0.337175
0.362549
0.385029
0.404691
0.422424
0.439066
0.0877488
0.132803
0.170313
0.201496
0.229531
0.254892
0.278725
0.30132
0.321937
0.340283
0.356959
0.372745
0.0673686
0.0946179
0.127691
0.156111
0.180258
0.201527
0.221534
0.241072
0.259512
0.276123
0.291129
0.305345
0.0483267
0.0613829
0.0862989
0.108967
0.12703
0.142919
0.15819
0.173994
0.189696
0.203913
0.216266
0.227909
0.02143
0.0259099
0.0370443
0.0480866
0.0561349
0.0627118
0.0689598
0.0756881
0.082742
0.0893467
0.0954834
0.101409
0.934375
0.921685
0.905637
0.884176
0.855836
0.820248
0.777645
0.727673
0.667334
0.587351
0.458611
0.272651
0.86532
0.859792
0.848772
0.828914
0.797736
0.753885
0.69641
0.623866
0.531737
0.408921
0.223381
0.0689796
0.797067
0.797583
0.791125
0.773076
0.740147
0.689976
0.620753
0.531262
0.419697
0.286229
0.13986
0.0492723
0.728492
0.733584
0.731238
0.71551
0.682619
0.629551
0.554357
0.457583
0.342916
0.223296
0.12136
0.0482373
0.659447
0.667937
0.668985
0.656141
0.625221
0.573035
0.497989
0.402903
0.296178
0.19532
0.118144
0.048568
0.590428
0.601311
0.605025
0.595366
0.568014
0.519944
0.449857
0.362319
0.267887
0.182608
0.117524
0.048144
0.522002
0.534401
0.540179
0.533632
0.51084
0.469192
0.407036
0.329858
0.248208
0.174906
0.116176
0.0459241
0.45454
0.467691
0.474914
0.47104
0.453266
0.419277
0.366495
0.300437
0.230593
0.166695
0.111646
0.0422487
0.387693
0.400808
0.408887
0.407226
0.394013
0.36775
0.325286
0.269984
0.21063
0.154562
0.10205
0.0368115
0.318982
0.331299
0.339636
0.339607
0.330159
0.31073
0.279075
0.234292
0.184301
0.13535
0.0854422
0.0296
0.239169
0.249631
0.25734
0.258378
0.252216
0.238214
0.217131
0.185772
0.144577
0.103504
0.0583302
0.0207262
0.107373
0.11336
0.118589
0.120963
0.119872
0.115317
0.1074
0.0956094
0.0792099
0.0579213
0.0350556
0.013543
0.491894
0.714114
0.746019
0.771929
0.807678
0.84955
0.892049
0.925207
0.946991
0.95912
0.960384
0.949096
0.353968
0.587613
0.63973
0.674438
0.712833
0.755222
0.797059
0.830225
0.853208
0.86736
0.873114
0.87074
0.284436
0.485736
0.544394
0.584201
0.623966
0.665823
0.706346
0.739446
0.76379
0.780199
0.790288
0.794984
0.234817
0.402786
0.460678
0.502009
0.541796
0.58222
0.620905
0.653507
0.678742
0.697356
0.710912
0.720877
0.195379
0.333865
0.387556
0.42805
0.466642
0.5049
0.541274
0.572823
0.598262
0.618328
0.634502
0.648062
0.162028
0.27499
0.323533
0.361934
0.398451
0.433979
0.467635
0.497575
0.522558
0.543212
0.560871
0.576626
0.133599
0.222893
0.266995
0.302873
0.336822
0.369219
0.399835
0.427681
0.451638
0.472104
0.490213
0.506904
0.109435
0.175631
0.216399
0.249844
0.280976
0.309974
0.337307
0.362675
0.385145
0.404797
0.422513
0.439135
0.0877969
0.132874
0.1704
0.201595
0.229637
0.255003
0.278833
0.301423
0.322033
0.34037
0.357033
0.3728
0.0674056
0.094668
0.127755
0.156186
0.180342
0.201616
0.221621
0.241154
0.259588
0.276192
0.291187
0.305388
0.048353
0.0614156
0.0863413
0.10902
0.127091
0.142984
0.158254
0.174053
0.189751
0.203963
0.216308
0.227939
0.0214417
0.0259231
0.0370627
0.0481107
0.0561631
0.0627426
0.0689909
0.0757164
0.0827685
0.0893711
0.0955042
0.101425
0.934553
0.921828
0.905746
0.884253
0.855882
0.82026
0.77762
0.727609
0.667235
0.587222
0.458472
0.272566
0.865473
0.859907
0.848849
0.828956
0.797746
0.753865
0.69636
0.62379
0.531647
0.408833
0.223337
0.0689701
0.797197
0.797677
0.791176
0.77309
0.74013
0.689933
0.620691
0.531189
0.41963
0.286185
0.139852
0.0492693
0.728601
0.733658
0.731268
0.715502
0.682582
0.629494
0.554289
0.457518
0.342868
0.223272
0.121355
0.048234
0.659537
0.667993
0.669
0.656118
0.625171
0.572969
0.49792
0.402844
0.29614
0.195301
0.118136
0.0485642
0.5905
0.601353
0.605029
0.595335
0.567958
0.519875
0.449788
0.362264
0.267852
0.182589
0.117513
0.0481384
0.52206
0.534433
0.540176
0.533597
0.510783
0.469124
0.40697
0.329804
0.248173
0.174884
0.116161
0.0459179
0.454587
0.467714
0.474906
0.471004
0.453212
0.419213
0.366431
0.300385
0.230557
0.16667
0.11163
0.0422421
0.387729
0.400825
0.408876
0.407194
0.393964
0.367692
0.325227
0.269935
0.210594
0.154536
0.102032
0.0368049
0.31901
0.331311
0.339625
0.339577
0.330115
0.310681
0.279024
0.234248
0.184267
0.135325
0.0854256
0.0295942
0.239188
0.249638
0.257331
0.258353
0.252182
0.238175
0.217092
0.185735
0.144547
0.103483
0.0583172
0.0207215
0.107385
0.113367
0.118589
0.120953
0.119858
0.115299
0.107381
0.0955915
0.0791928
0.0579083
0.0350468
0.0135391
0.491678
0.713771
0.74565
0.771548
0.807295
0.849175
0.891694
0.924893
0.946715
0.958877
0.960192
0.948949
0.353787
0.587293
0.639376
0.67407
0.712461
0.754858
0.796714
0.829923
0.852948
0.867135
0.872941
0.870616
0.284278
0.485447
0.544065
0.583853
0.623612
0.665474
0.706015
0.739156
0.763544
0.779992
0.790132
0.794873
0.234679
0.402529
0.460378
0.501687
0.541465
0.581892
0.620591
0.65323
0.678507
0.697166
0.710771
0.72077
0.195259
0.333639
0.387287
0.427757
0.466337
0.504595
0.54098
0.572561
0.598039
0.618152
0.634377
0.647949
0.161926
0.274795
0.323296
0.361671
0.398175
0.4337
0.467363
0.497331
0.522349
0.543046
0.560751
0.57651
0.133514
0.222729
0.26679
0.302641
0.336575
0.368967
0.399588
0.427454
0.451443
0.471948
0.490095
0.506792
0.109364
0.175498
0.216226
0.249644
0.280759
0.30975
0.337088
0.36247
0.384968
0.404652
0.422399
0.439028
0.0877408
0.132771
0.17026
0.201427
0.229453
0.25481
0.278642
0.301244
0.321875
0.340238
0.356926
0.372702
0.0673634
0.0945948
0.127647
0.156052
0.180192
0.201457
0.221462
0.241004
0.259454
0.276079
0.291093
0.3053
0.0483242
0.0613694
0.0862654
0.108923
0.12698
0.142866
0.158136
0.173941
0.18965
0.203876
0.216235
0.227868
0.0214304
0.025907
0.0370302
0.0480678
0.0561135
0.0626895
0.0689372
0.0756658
0.0827229
0.0893321
0.0954712
0.101391
)
;

boundaryField
{
    rotor
    {
        type            kqRWallFunction;
        value           nonuniform List<scalar> 
192
(
0.034099
0.0452995
0.0506187
0.0505386
0.0472841
0.0423558
0.0448434
0.0767134
0.196756
0.265686
0.294922
0.31453
0.325926
0.33175
0.332334
0.331051
0.325782
0.314103
0.297084
0.272517
0.241358
0.200385
0.15186
0.117977
0.0341431
0.045353
0.0506638
0.050581
0.0473237
0.0423831
0.0448543
0.0766215
0.196639
0.265615
0.294864
0.314472
0.325876
0.331704
0.332298
0.331019
0.325761
0.314086
0.297076
0.272511
0.241359
0.200388
0.151867
0.117983
0.0341358
0.0453355
0.0506417
0.0505552
0.0472897
0.0423563
0.0448502
0.0767832
0.196822
0.265715
0.294942
0.314551
0.325947
0.33177
0.332353
0.331071
0.325796
0.314117
0.297094
0.272525
0.241365
0.200388
0.15186
0.117974
0.0341432
0.0453522
0.050663
0.0505799
0.0473213
0.0423826
0.0448594
0.0766695
0.196702
0.26566
0.294904
0.314514
0.325916
0.331744
0.332335
0.331055
0.325793
0.314115
0.297101
0.272532
0.241374
0.2004
0.151875
0.117991
0.034099
0.0591803
0.0733667
0.100122
0.115876
0.126795
0.133698
0.140047
0.150548
0.168699
0.202258
0.583609
0.117991
0.277957
0.405428
0.504241
0.590783
0.674253
0.754445
0.846525
0.950724
1.06143
1.19214
1.38325
0.0341431
0.0592126
0.0733934
0.10013
0.115868
0.126768
0.133678
0.140031
0.15054
0.1687
0.202266
0.583642
0.117977
0.277932
0.405401
0.504209
0.590746
0.67421
0.754394
0.846465
0.950657
1.06136
1.19206
1.38317
0.0341358
0.0592062
0.0733901
0.100153
0.115909
0.12683
0.133724
0.140065
0.15055
0.168683
0.20224
0.583673
0.117983
0.277942
0.405411
0.504218
0.590758
0.674224
0.754412
0.846487
0.950684
1.06139
1.19211
1.38322
0.0341432
0.0592141
0.073396
0.100134
0.115873
0.126774
0.133682
0.140033
0.150543
0.168706
0.202279
0.583701
0.117974
0.27793
0.405409
0.504229
0.590779
0.674256
0.754453
0.84654
0.950749
1.06147
1.19219
1.38334
)
;
    }
    stator
    {
        type            kqRWallFunction;
        value           nonuniform List<scalar> 
192
(
0.107326
0.113315
0.118545
0.120916
0.119825
0.11527
0.107355
0.0955688
0.0791748
0.0578954
0.0350395
0.0135369
0.0214256
0.0259018
0.0370262
0.0480645
0.0561111
0.0626877
0.0689357
0.0756636
0.0827186
0.089325
0.0954631
0.10139
0.107357
0.113345
0.118575
0.120948
0.119857
0.115302
0.107385
0.0955965
0.0791992
0.0579138
0.0350511
0.0135413
0.02143
0.0259099
0.0370443
0.0480866
0.0561349
0.0627118
0.0689598
0.0756881
0.082742
0.0893467
0.0954834
0.101409
0.107373
0.11336
0.118589
0.120963
0.119872
0.115317
0.1074
0.0956094
0.0792099
0.0579213
0.0350556
0.013543
0.0214417
0.0259231
0.0370627
0.0481107
0.0561631
0.0627426
0.0689909
0.0757164
0.0827685
0.0893711
0.0955042
0.101425
0.107385
0.113367
0.118589
0.120953
0.119858
0.115299
0.107381
0.0955915