/*--------------------------------*- C++ -*----------------------------------*\
| =========                 |                                                 |
| \\      /  F ield         | OpenFOAM: The Open Source CFD Toolbox           |
|  \\    /   O peration     | Version:  v1912                                 |
|   \\  /    A nd           | Website:  www.openfoam.com                      |
|    \\/     M anipulation  |                                                 |
\*---------------------------------------------------------------------------*/
FoamFile
{
    version     2.0;
    format      ascii;
    class       volScalarField;
    location    "400";
    object      nut;
}
// * * * * * * * * * * * * * * * * * * * * * * * * * * * * * * * * * * * * * //

dimensions      [0 2 -1 0 0 0 0];


internalField   nonuniform List<scalar> 
3072
(
2.88438e-05
6.08778e-05
6.43407e-05
6.42957e-05
6.22163e-05
5.88573e-05
6.04654e-05
7.84745e-05
0.000126306
0.000147122
0.000155087
0.000160174
4.24243e-05
0.000160601
0.000202257
0.000189869
0.000112926
7.78726e-05
0.000133915
0.000162814
0.00023413
0.000327015
0.00045148
0.000592781
5.21895e-05
0.000211981
0.000267344
0.000236801
0.000206298
0.000195546
0.00028003
0.000413622
0.000597048
0.000820238
0.00104241
0.00124392
6.67574e-05
0.000307009
0.000313352
0.000286177
0.000281746
0.000368794
0.000563792
0.000790573
0.00104606
0.00131005
0.00155025
0.00175861
7.80538e-05
0.000363575
0.00038248
0.000372235
0.000450756
0.000658366
0.000899843
0.00116036
0.00143322
0.00169846
0.00193605
0.00214109
8.81754e-05
0.00043228
0.000495504
0.000543897
0.000709642
0.000948255
0.00120816
0.00147662
0.00174028
0.00198914
0.00221219
0.00240802
9.72793e-05
0.000506661
0.000636857
0.000765218
0.000987809
0.00123963
0.00149666
0.00175299
0.00199856
0.00222418
0.00242532
0.00260042
0.000106466
0.000608517
0.000824559
0.00105413
0.0013033
0.00154889
0.00178502
0.00200851
0.00221531
0.00240176
0.00256735
0.00271233
0.000117564
0.00073106
0.00108236
0.0013673
0.00161379
0.00183227
0.00202758
0.00220125
0.00235734
0.00249734
0.00262459
0.00273944
0.000132036
0.000839015
0.00127615
0.00157838
0.00180775
0.00199344
0.00215087
0.00228963
0.00241372
0.00252123
0.00262231
0.002715
0.000152854
0.000789272
0.00135038
0.00167989
0.00190814
0.00208512
0.00222798
0.0023478
0.00244676
0.00253225
0.00260971
0.00268127
0.000273679
0.000762749
0.00142734
0.001802
0.00201137
0.00217635
0.00231394
0.00241313
0.00249241
0.00255744
0.00261357
0.00266422
0.000163092
0.000164569
0.00016475
0.000164416
0.000163133
0.000160191
0.000155818
0.000149242
0.000140481
0.000128002
0.00011144
5.36368e-05
0.000736073
0.000857991
0.000944422
0.000972213
0.000945456
0.000887438
0.000794617
0.000667143
0.000511666
0.000311791
0.000156885
9.20071e-05
0.00141532
0.00153786
0.00160233
0.00161102
0.00156759
0.00147516
0.00133335
0.00113957
0.000892833
0.000596578
0.000265265
0.000122818
0.00192894
0.00205378
0.00212996
0.00215626
0.00213024
0.00204682
0.00189913
0.00167519
0.00136898
0.000973484
0.000475299
0.00015
0.00231019
0.00244015
0.00252876
0.00257329
0.00256959
0.00251077
0.00238348
0.00216625
0.00181817
0.00133454
0.00069872
0.000176476
0.00257291
0.00270487
0.00280294
0.00286527
0.0028886
0.00286548
0.00277781
0.00259393
0.00226805
0.0017332
0.000982851
0.000203604
0.00274889
0.00287091
0.00296711
0.0030386
0.00308572
0.00310331
0.00307295
0.00295292
0.0026703
0.00212802
0.00127722
0.00023132
0.00283701
0.00294284
0.00303183
0.00310642
0.00316964
0.00322201
0.00325102
0.00321435
0.00301822
0.00250738
0.00157097
0.000261922
0.00284281
0.00293578
0.00301937
0.00309383
0.00316508
0.00324154
0.00331961
0.00337002
0.0032916
0.00286088
0.00183281
0.000295483
0.00280094
0.00288294
0.00296296
0.00304151
0.00311538
0.00319436
0.00330129
0.00342368
0.00347781
0.00319174
0.00213713
0.000331135
0.00274936
0.00281703
0.00288706
0.0029669
0.00305946
0.0031358
0.00324167
0.00339762
0.00355914
0.00347447
0.00250232
0.000370991
0.00271377
0.00276703
0.00282714
0.0028984
0.00300242
0.00309206
0.00318762
0.00334653
0.00356116
0.00365592
0.00292567
0.000421238
2.88519e-05
6.09098e-05
6.43687e-05
6.43235e-05
6.2243e-05
5.88773e-05
6.04695e-05
7.84342e-05
0.00012627
0.000147103
0.000155073
0.00016016
4.24355e-05
0.000160663
0.000202353
0.000190002
0.000113049
7.78961e-05
0.000133891
0.000162754
0.000233991
0.000326887
0.000451287
0.000592573
5.21995e-05
0.000212037
0.000267426
0.000236916
0.000206354
0.000195536
0.000279809
0.000413399
0.000596742
0.000819906
0.00104205
0.00124355
6.67615e-05
0.000307071
0.000313436
0.000286239
0.000281656
0.000368506
0.000563445
0.00079021
0.00104564
0.0013096
0.00154978
0.00175812
7.80534e-05
0.000363557
0.000382387
0.000372056
0.000450422
0.000657973
0.000899463
0.00115994
0.00143273
0.00169794
0.00193551
0.00214054
8.81688e-05
0.000432177
0.000495297
0.000543599
0.000709257
0.00094788
0.00120775
0.00147618
0.00173979
0.00198862
0.00221164
0.00240745
9.72739e-05
0.000506539
0.000636622
0.000764892
0.000987466
0.00123928
0.00149628
0.00175257
0.0019981
0.00222369
0.0024248
0.00259988
0.000106461
0.000608437
0.000824385
0.00105391
0.00130306
0.00154862
0.00178472
0.00200817
0.00221493
0.00240135
0.00256691
0.00271186
0.000117561
0.000731064
0.00108231
0.00136722
0.00161368
0.00183213
0.0020274
0.00220103
0.00235708
0.00249704
0.00262425
0.00273906
0.000132037
0.00083906
0.00127618
0.0015784
0.00180775
0.00199342
0.00215082
0.00228955
0.0024136
0.00252109
0.00262212
0.00271478
0.000152856
0.000789301
0.00135044
0.00167998
0.00190825
0.00208523
0.00222808
0.00234788
0.0024468
0.00253226
0.00260968
0.0026812
0.000273684
0.0007628
0.00142745
0.00180214
0.00201155
0.00217654
0.00231415
0.00241332
0.00249258
0.00255758
0.00261368
0.0026643
0.000163081
0.00016456
0.000164743
0.000164409
0.000163129
0.000160188
0.000155817
0.000149241
0.000140482
0.000128004
0.000111443
5.36383e-05
0.000735863
0.000857781
0.000944247
0.000972051
0.000945316
0.00088732
0.000794529
0.000667085
0.000511633
0.000311777
0.000156884
9.20091e-05
0.00141494
0.00153748
0.00160198
0.00161073
0.00156735
0.00147495
0.00133319
0.00113946
0.000892769
0.000596547
0.00026526
0.00012282
0.00192845
0.0020533
0.00212951
0.00215587
0.00212989
0.00204653
0.00189889
0.00167503
0.00136887
0.000973431
0.000475285
0.000150002
0.00230964
0.00243961
0.00252825
0.00257282
0.00256917
0.00251041
0.00238319
0.00216604
0.00181803
0.00133446
0.000698702
0.000176478
0.00257234
0.00270431
0.0028024
0.00286476
0.00288813
0.00286507
0.00277748
0.00259368
0.00226789
0.00173311
0.00098283
0.000203607
0.00274834
0.00287036
0.00296657
0.00303809
0.00308524
0.00310288
0.00307258
0.00295265
0.00267013
0.00212794
0.0012772
0.000231324
0.00283652
0.00294234
0.00303133
0.00310593
0.00316917
0.00322159
0.00325065
0.00321407
0.00301804
0.0025073
0.00157095
0.000261926
0.00284241
0.00293536
0.00301894
0.00309341
0.00316467
0.00324116
0.00331927
0.00336975
0.00329142
0.0028608
0.00183281
0.000295488
0.00280068
0.00288265
0.00296264
0.0030412
0.00311507
0.00319405
0.003301
0.00342345
0.00347766
0.00319168
0.00213714
0.000331142
0.00274926
0.00281689
0.0028869
0.00296671
0.00305928
0.00313561
0.00324149
0.00339746
0.00355904
0.00347445
0.00250236
0.000370998
0.00271381
0.00276703
0.00282711
0.00289835
0.00300236
0.00309201
0.00318757
0.00334649
0.00356114
0.00365595
0.00292574
0.000421247
2.88482e-05
6.08968e-05
6.43531e-05
6.43057e-05
6.22194e-05
5.88579e-05
6.04721e-05
7.85109e-05
0.000126329
0.000147131
0.000155093
0.00016018
4.24317e-05
0.000160655
0.000202276
0.000189805
0.000112825
7.78717e-05
0.000133933
0.000162855
0.000234225
0.000327102
0.00045161
0.000592922
5.21964e-05
0.00021203
0.000267306
0.000236676
0.000206218
0.000195531
0.000280211
0.000413803
0.000597292
0.000820492
0.00104267
0.00124418
6.6767e-05
0.000306994
0.000313279
0.000286097
0.000281823
0.000369058
0.000564119
0.000790909
0.0010464
0.00131039
0.00155057
0.00175892
7.8065e-05
0.000363599
0.000382568
0.000372396
0.000451095
0.000658824
0.000900257
0.00116077
0.00143361
0.00169883
0.00193641
0.00214144
8.81879e-05
0.000432384
0.000495718
0.000544243
0.000710133
0.000948724
0.00120862
0.00147707
0.0017407
0.00198955
0.00221259
0.0024084
9.72889e-05
0.00050678
0.000637153
0.000765665
0.000988308
0.00124012
0.00149715
0.00175348
0.00199903
0.00222463
0.00242575
0.00260084
0.000106473
0.000608605
0.000824822
0.00105452
0.00130373
0.00154936
0.00178552
0.00200901
0.00221579
0.00240223
0.00256781
0.00271277
0.000117564
0.000731041
0.00108251
0.00136754
0.0016141
0.00183264
0.00202799
0.00220169
0.00235779
0.00249778
0.00262503
0.00273987
0.00013203
0.000838941
0.00127622
0.00157852
0.00180795
0.0019937
0.00215118
0.00229
0.00241414
0.00252166
0.00262275
0.00271545
0.000152846
0.000789233
0.00135043
0.00167999
0.00190827
0.00208532
0.00222824
0.00234815
0.00244715
0.00253267
0.00261016
0.00268173
0.000273692
0.000762812
0.00142743
0.00180214
0.00201154
0.00217658
0.00231422
0.00241346
0.0024928
0.00255786
0.00261402
0.00266469
0.000163098
0.000164575
0.000164756
0.000164422
0.000163137
0.000160195
0.000155821
0.000149245
0.000140483
0.000128004
0.000111441
5.36364e-05
0.000736223
0.000858142
0.000944562
0.000972351
0.000945585
0.000887556
0.00079472
0.000667218
0.000511711
0.000311811
0.00015689
9.20071e-05
0.00141557
0.0015381
0.00160257
0.00161123
0.00156779
0.00147534
0.0013335
0.00113969
0.000892924
0.00059663
0.000265282
0.00012282
0.00192924
0.00205407
0.00213024
0.00215654
0.0021305
0.00204706
0.00189934
0.00167537
0.00136912
0.000973575
0.000475336
0.000150003
0.00231052
0.00244048
0.00252908
0.0025736
0.0025699
0.00251106
0.00238374
0.00216649
0.00181836
0.00133467
0.000698775
0.000176481
0.00257328
0.00270524
0.0028033
0.00286563
0.00288896
0.00286583
0.00277815
0.00259423
0.00226829
0.00173337
0.000982936
0.000203611
0.0027493
0.00287131
0.00296751
0.003039
0.00308612
0.00310371
0.00307334
0.0029533
0.00267063
0.00212825
0.00127733
0.00023133
0.00283743
0.00294326
0.00303225
0.00310684
0.00317008
0.00322247
0.00325148
0.0032148
0.00301862
0.00250768
0.00157111
0.000261934
0.00284324
0.00293621
0.00301981
0.00309429
0.00316555
0.00324204
0.00332013
0.00337056
0.00329209
0.00286125
0.00183298
0.000295497
0.0028014
0.0028834
0.00296343
0.003042
0.0031159
0.00319489
0.00330186
0.0034243
0.00347841
0.00319221
0.00213734
0.000331153
0.00274983
0.00281751
0.00288756
0.00296742
0.00306001
0.00313637
0.00324229
0.0033983
0.00355986
0.00347507
0.00250257
0.000371012
0.00271424
0.00276752
0.00282764
0.00289894
0.00300299
0.00309267
0.00318828
0.00334728
0.003562
0.00365666
0.002926
0.000421264
2.8852e-05
6.09091e-05
6.43681e-05
6.43227e-05
6.22412e-05
5.88768e-05
6.04742e-05
7.84581e-05
0.000126291
0.000147116
0.000155083
0.000160171
4.24362e-05
0.000160662
0.000202346
0.000189979
0.000113023
7.79046e-05
0.000133907
0.000162775
0.000234051
0.000326944
0.000451378
0.000592676
5.22006e-05
0.000212039
0.000267422
0.000236905
0.000206353
0.000195549
0.000279869
0.000413479
0.000596861
0.000820048
0.00104221
0.00124372
6.67633e-05
0.000307071
0.000313431
0.000286239
0.000281676
0.000368573
0.000563545
0.000790335
0.0010458
0.00130979
0.00154998
0.00175834
7.80555e-05
0.000363562
0.000382398
0.000372078
0.000450477
0.000658053
0.00089957
0.00116007
0.00143291
0.00169814
0.00193573
0.00214077
8.81711e-05
0.000432183
0.000495301
0.00054362
0.000709301
0.000947954
0.00120786
0.00147631
0.00173996
0.00198881
0.00221185
0.00240768
9.72758e-05
0.000506531
0.000636605
0.000764882
0.000987486
0.00123934
0.00149637
0.0017527
0.00199826
0.00222387
0.002425
0.0026001
0.000106463
0.000608421
0.000824357
0.0010539
0.00130308
0.00154868
0.00178481
0.00200829
0.00221508
0.00240153
0.00256711
0.00271209
0.000117562
0.000731053
0.00108231
0.00136726
0.00161375
0.00183223
0.00202753
0.00220119
0.00235726
0.00249724
0.00262447
0.00273931
0.000132039
0.000839092
0.00127625
0.00157852
0.00180789
0.00199357
0.002151
0.00228975
0.00241382
0.00252132
0.00262237
0.00271504
0.00015286
0.000789377
0.00135057
0.00168014
0.00190844
0.00208544
0.00222831
0.00234812
0.00244705
0.00253253
0.00260996
0.0026815
0.000273698
0.000762916
0.00142761
0.00180235
0.00201178
0.00217681
0.00231442
0.00241361
0.00249288
0.00255789
0.002614
0.00266462
0.000163091
0.000164569
0.000164752
0.000164418
0.000163137
0.000160195
0.000155823
0.000149247
0.000140486
0.000128008
0.000111446
5.36401e-05
0.000735976
0.0008579
0.000944358
0.000972161
0.000945418
0.000887414
0.000794609
0.000667147
0.000511679
0.000311801
0.000156892
9.20115e-05
0.00141513
0.00153767
0.00160217
0.0016109
0.00156751
0.00147511
0.00133333
0.00113957
0.00089285
0.000596598
0.000265276
0.000122823
0.00192868
0.00205353
0.00212974
0.00215609
0.0021301
0.00204673
0.00189907
0.00167518
0.00136898
0.000973504
0.000475317
0.000150005
0.00230988
0.00243986
0.00252849
0.00257306
0.00256941
0.00251064
0.0023834
0.00216623
0.00181818
0.00133457
0.000698747
0.000176482
0.00257258
0.00270456
0.00280265
0.00286502
0.00288839
0.00286533
0.00277772
0.0025939
0.00226806
0.00173324
0.00098289
0.000203611
0.00274858
0.00287061
0.00296684
0.00303836
0.00308552
0.00310316
0.00307285
0.0029529
0.00267034
0.00212809
0.00127728
0.000231329
0.00283676
0.0029426
0.0030316
0.00310621
0.00316947
0.00322189
0.00325095
0.00321435
0.00301828
0.00250747
0.00157104
0.000261932
0.00284267
0.00293564
0.00301923
0.00309371
0.00316499
0.00324148
0.0033196
0.00337006
0.00329169
0.002861
0.0018329
0.000295494
0.00280097
0.00288295
0.00296296
0.00304152
0.0031154
0.00319439
0.00330135
0.00342379
0.00347795
0.0031919
0.00213724
0.000331148
0.00274957
0.00281721
0.00288723
0.00296706
0.00305963
0.00313596
0.00324185
0.00339781
0.00355934
0.00347467
0.00250245
0.000371004
0.00271414
0.00276739
0.00282748
0.00289872
0.00300272
0.00309237
0.00318792
0.00334682
0.00356143
0.00365616
0.0029258
0.000421252
0.00169088
0.0017744
0.00191
0.00206589
0.00220286
0.00232555
0.00242796
0.00249937
0.00255578
0.00259943
0.0026352
0.00266629
0.00276482
0.00258292
0.00251464
0.00250732
0.00252492
0.00255122
0.0025747
0.00259828
0.00262486
0.00264513
0.00266231
0.00267851
0.00348055
0.00325368
0.00307864
0.00295652
0.00286278
0.00280145
0.0027604
0.00273638
0.00272481
0.00271078
0.00270067
0.00270453
0.00372727
0.00355237
0.00337266
0.003201
0.00306252
0.00294963
0.00286187
0.00280034
0.00276568
0.00274899
0.00275054
0.00277383
0.00269954
0.00274223
0.00279728
0.00286736
0.00297462
0.00307558
0.00317034
0.0033266
0.00354282
0.00379358
0.00382574
0.00178632
0.00270383
0.00274678
0.00280605
0.00288467
0.00298684
0.00309291
0.00319583
0.00334696
0.00354156
0.00377381
0.00418931
0.00309658
0.00273577
0.00279562
0.0028706
0.00295924
0.00305724
0.00317137
0.00328819
0.00342166
0.00358292
0.00375383
0.00412555
0.00374798
0.00282634
0.00292142
0.00300775
0.00310592
0.00321138
0.00332593
0.00344626
0.00356309
0.00368828
0.00379433
0.00402225
0.00391171
0.00169101
0.00177458
0.00191018
0.0020661
0.00220311
0.00232579
0.00242822
0.00249963
0.00255603
0.00259966
0.0026354
0.00266647
0.00276501
0.00258318
0.0025149
0.00250762
0.00252522
0.00255153
0.00257501
0.00259859
0.00262516
0.00264541
0.00266257
0.00267874
0.00348064
0.00325405
0.00307901
0.00295689
0.00286313
0.0028018
0.00276074
0.00273672
0.00272515
0.0027111
0.00270097
0.00270481
0.00372729
0.00355264
0.00337313
0.00320143
0.00306292
0.00295001
0.00286224
0.00280069
0.00276601
0.00274932
0.00275085
0.00277414
0.00269969
0.00274235
0.00279737
0.00286744
0.00297469
0.00307567
0.00317043
0.00332669
0.00354292
0.00379371
0.00382587
0.00178638
0.00270405
0.00274698
0.00280623
0.00288484
0.00298703
0.0030931
0.00319603
0.00334717
0.00354179
0.00377404
0.00418954
0.00309674
0.00273604
0.00279589
0.00287086
0.00295951
0.00305752
0.00317167
0.00328851
0.00342199
0.00358326
0.00375418
0.00412588
0.00374824
0.00282665
0.00292174
0.00300809
0.00310628
0.00321177
0.00332635
0.00344668
0.00356352
0.0036887
0.00379475
0.00402264
0.00391204
0.0016911
0.00177466
0.00191027
0.00206617
0.00220315
0.00232587
0.0024283
0.00249974
0.00255618
0.00259986
0.00263564
0.00266675
0.00276518
0.00258333
0.00251507
0.00250775
0.00252535
0.00255165
0.00257514
0.00259872
0.00262531
0.00264557
0.00266276
0.00267896
0.00348089
0.00325427
0.00307922
0.00295707
0.00286333
0.00280199
0.00276091
0.00273688
0.00272529
0.00271124
0.00270112
0.00270499
0.00372759
0.00355291
0.00337336
0.00320165
0.00306313
0.00295022
0.00286243
0.00280086
0.00276615
0.00274946
0.00275102
0.00277432
0.00270002
0.00274272
0.00279779
0.00286792
0.00297523
0.00307623
0.00317106
0.00332743
0.00354376
0.00379451
0.0038263
0.00178647
0.0027043
0.00274727
0.00280658
0.00288526
0.00298748
0.00309362
0.00319664
0.00334786
0.00354258
0.00377486
0.00419024
0.00309707
0.00273626
0.00279615
0.00287121
0.0029599
0.00305799
0.00317222
0.0032891
0.00342268
0.00358403
0.003755
0.00412673
0.00374884
0.00282691
0.00292206
0.0030085
0.00310677
0.00321232
0.00332697
0.00344732
0.00356424
0.00368947
0.00379557
0.00402349
0.00391274
0.00169113
0.00177474
0.00191041
0.00206637
0.0022034
0.00232613
0.00242857
0.00249998
0.00255638
0.00260001
0.00263576
0.00266683
0.00276541
0.00258352
0.00251527
0.00250798
0.00252561
0.00255192
0.00257541
0.00259899
0.00262557
0.00264581
0.00266295
0.00267913
0.00348137
0.00325465
0.00307955
0.00295738
0.00286363
0.00280228
0.00276121
0.00273718
0.00272557
0.0027115
0.00270133
0.00270521
0.00372819
0.00355341
0.00337376
0.003202
0.00306345
0.00295052
0.00286272
0.00280114
0.00276639
0.00274968
0.00275118
0.00277445
0.00270006
0.00274273
0.00279775
0.00286782
0.00297505
0.00307601
0.00317074
0.00332696
0.00354316
0.00379389
0.00382591
0.00178635
0.00270444
0.00274737
0.00280661
0.00288519
0.00298735
0.0030934
0.00319626
0.00334735
0.00354193
0.00377415
0.00418956
0.00309668
0.00273642
0.00279625
0.00287116
0.00295978
0.00305774
0.00317184
0.00328864
0.00342206
0.00358329
0.00375418
0.00412584
0.00374818
0.00282691
0.00292196
0.00300824
0.00310638
0.00321181
0.00332636
0.00344665
0.00356345
0.00368862
0.00379467
0.00402254
0.00391197
0.00359483
0.00341718
0.00324537
0.00308928
0.00296182
0.00286081
0.00278753
0.00274281
0.00272618
0.0027335
0.00278466
0.00288131
0.00350515
0.00333259
0.00316835
0.00301869
0.00289122
0.00278601
0.00270577
0.00265077
0.00261976
0.00260897
0.00264763
0.00274506
0.0034406
0.00327832
0.00312005
0.00296921
0.00283091
0.002706
0.00259594
0.00249958
0.00240627
0.00231804
0.0022595
0.00226856
0.00338597
0.00323865
0.00308681
0.00293128
0.00277429
0.00262051
0.00246517
0.00230082
0.00211351
0.00189191
0.00163681
0.00143041
0.00299763
0.00318066
0.00329732
0.00339674
0.00350122
0.00360325
0.00369472
0.00377288
0.00383848
0.0038844
0.00390947
0.00378974
0.00290603
0.00325443
0.00340833
0.00351147
0.00361254
0.00370343
0.00377918
0.00383319
0.00386189
0.0038654
0.00383197
0.00368649
0.00243291
0.00314209
0.00339355
0.00351643
0.0036211
0.00370634
0.00377484
0.00381182
0.00382126
0.00381028
0.00375251
0.00360617
0.00146342
0.00279824
0.00326664
0.00344822
0.00356149
0.00364668
0.00371337
0.00374235
0.00374504
0.00372943
0.00366789
0.00353422
0.00359507
0.00341756
0.00324583
0.0030897
0.0029622
0.00286116
0.00278786
0.00274312
0.00272648
0.00273379
0.00278495
0.00288162
0.00350549
0.003333
0.00316879
0.00301909
0.00289159
0.00278634
0.00270607
0.00265104
0.00262001
0.00260921
0.00264788
0.00274535
0.00344098
0.00327874
0.00312047
0.0029696
0.00283125
0.0027063
0.00259621
0.00249982
0.00240647
0.00231822
0.00225967
0.00226876
0.00338636
0.00323906
0.00308723
0.00293166
0.00277462
0.0026208
0.00246542
0.00230103
0.00211368
0.00189205
0.00163693
0.00143049
0.00299798
0.00318105
0.00329776
0.00339722
0.00350171
0.00360374
0.0036952
0.00377334
0.00383891
0.00388481
0.00390985
0.00379006
0.00290636
0.00325487
0.00340885
0.00351203
0.00361311
0.00370399
0.00377971
0.00383369
0.00386234
0.00386583
0.00383235
0.00368683
0.00243318
0.00314253
0.00339411
0.00351704
0.00362173
0.00370695
0.00377541
0.00381234
0.00382174
0.00381072
0.00375289
0.00360651
0.00146355
0.00279863
0.00326722
0.00344887
0.00356216
0.00364733
0.00371399
0.0037429
0.00374555
0.00372988
0.00366828
0.00353456
0.00359537
0.00341783
0.00324607
0.00308993
0.00296241
0.00286137
0.00278805
0.0027433
0.00272664
0.00273397
0.00278519
0.00288193
0.0035058
0.00333328
0.00316904
0.00301932
0.0028918
0.00278653
0.00270624
0.00265121
0.00262017
0.00260938
0.00264813
0.00274572
0.00344129
0.00327901
0.00312072
0.00296982
0.00283145
0.00270649
0.00259638
0.00250001
0.0024066
0.00231834
0.00225984
0.00226902
0.00338666
0.00323933
0.00308747
0.00293188
0.00277482
0.00262097
0.00246556
0.00230118
0.00211376
0.00189214
0.00163706
0.00143062
0.00299838
0.00318152
0.00329832
0.00339786
0.00350236
0.00360444
0.0036959
0.00377408
0.00383967
0.00388557
0.00391058
0.0037907
0.00290678
0.00325542
0.00340951
0.00351274
0.00361383
0.00370473
0.00378045
0.00383443
0.00386308
0.00386655
0.00383302
0.00368741
0.00243357
0.00314309
0.00339482
0.00351778
0.00362248
0.0037077
0.00377616
0.00381308
0.00382246
0.00381142
0.00375353
0.00360706
0.00146377
0.00279917
0.00326793
0.00344963
0.00356292
0.00364809
0.00371473
0.00374362
0.00374626
0.00373056
0.00366889
0.00353509
0.0035959
0.00341827
0.00324643
0.00309025
0.00296271
0.00286163
0.00278829
0.0027435
0.00272677
0.00273407
0.00278514
0.00288174
0.00350628
0.00333367
0.00316937
0.00301962
0.00289207
0.00278677
0.00270642
0.00265132
0.00262022
0.0026094
0.00264795
0.00274534
0.00344174
0.00327938
0.00312103
0.0029701
0.00283171
0.00270669
0.0025965
0.00250002
0.00240665
0.00231834
0.0022597
0.00226872
0.00338711
0.00323968
0.00308776
0.00293212
0.00277503
0.00262116
0.0024657
0.00230121
0.00211383
0.00189213
0.00163691
0.00143045
0.00299804
0.00318107
0.00329769
0.00339708
0.00350154
0.00360356
0.00369501
0.00377317
0.00383877
0.0038847
0.00390977
0.00379006
0.00290633
0.00325474
0.00340862
0.00351174
0.00361278
0.00370366
0.0037794
0.00383342
0.00386215
0.00386567
0.00383229
0.00368682
0.00243309
0.00314232
0.00339377
0.00351662
0.00362128
0.0037065
0.00377499
0.003812
0.00382148
0.00381053
0.00375285
0.0036065
0.0014635
0.00279839
0.0032668
0.00344837
0.0035616
0.00364678
0.00371347
0.00374249
0.00374521
0.00372964
0.00366822
0.00353455
0.00333035
0.00320116
0.00305798
0.00289778
0.00272309
0.00253954
0.00233626
0.00210279
0.001819
0.00144583
0.000885442
0.000273568
0.00326435
0.00315583
0.00302543
0.00286484
0.00267963
0.00247391
0.00223436
0.00195202
0.0016128
0.0011924
0.000605294
0.00014242
0.0031815
0.00309431
0.00298182
0.00282709
0.00264091
0.00242494
0.00216664
0.00186146
0.00150821
0.00111908
0.000617055
0.000124415
0.00308051
0.00301227
0.00292026
0.00277783
0.0025996
0.00238537
0.0021253
0.00182064
0.00148406
0.00114973
0.000714322
0.000127125
0.00295747
0.00290649
0.00283386
0.00270913
0.00254575
0.00234273
0.0020933
0.00180336
0.00149118
0.00117187
0.000768257
0.000131605
0.00280608
0.00277101
0.00271548
0.00261138
0.00246749
0.00228179
0.00204967
0.00177828
0.00148188
0.00115364
0.000769829
0.000135047
0.00261466
0.00259457
0.00255459
0.0024715
0.00235003
0.00218469
0.00197224
0.0017181
0.00142983
0.0010948
0.00072793
0.000135827
0.00236411
0.00235828
0.0023325
0.00226919
0.00217159
0.00202853
0.00183744
0.00159969
0.00131937
0.000994465
0.000646006
0.000134044
0.00202276
0.00202915
0.00201703
0.00197169
0.00189537
0.00177825
0.00161725
0.00139817
0.00113362
0.0008376
0.000525543
0.000128637
0.00153875
0.00155314
0.00155252
0.0015234
0.0014667
0.00138093
0.00126604
0.00108073
0.000856786
0.000616101
0.000365031
0.0001185
0.000844464
0.000857779
0.000862962
0.000849851
0.000819745
0.000773375
0.000714702
0.000612586
0.00046455
0.000322123
0.000170928
0.000101791
9.1666e-05
9.41838e-05
9.63231e-05
9.72677e-05
9.68188e-05
9.49519e-05
9.16259e-05
8.64436e-05
7.86675e-05
6.72647e-05
5.23212e-05
3.25135e-05
0.00036762
0.00230608
0.00306695
0.00332645
0.00345338
0.0035433
0.00361262
0.00364123
0.00364308
0.00362761
0.00357232
0.00346008
0.000322903
0.00205306
0.00285591
0.00316716
0.00330935
0.00340708
0.00348193
0.00351599
0.00352313
0.00350858
0.00346288
0.00337384
0.000299341
0.00184853
0.00264078
0.00297908
0.00313768
0.00324441
0.00332606
0.00336923
0.0033861
0.0033763
0.0033393
0.0032689
0.000280952
0.00166101
0.0024203
0.00277084
0.00294348
0.00305864
0.00314671
0.00320062
0.00322744
0.0032277
0.00320076
0.00314797
0.000264453
0.00147843
0.00219336
0.00254628
0.00272888
0.00285053
0.00294378
0.00300804
0.00304425
0.00305555
0.00304293
0.00300768
0.00024827
0.00129206
0.00195633
0.00230561
0.00249287
0.00261786
0.00271462
0.00278703
0.00283274
0.00285541
0.00285701
0.00283918
0.000232196
0.00108594
0.00170449
0.00204611
0.00223079
0.00235441
0.0024522
0.00253019
0.00258457
0.0026179
0.00263251
0.00263059
0.000216264
0.000862793
0.00143258
0.00176255
0.00193308
0.00204839
0.00214326
0.00222354
0.00228455
0.00232675
0.0023523
0.00236404
0.000199182
0.000646664
0.0011413
0.00144271
0.00158264
0.00168004
0.00176583
0.00184355
0.00190716
0.00195474
0.00198776
0.00200976
0.000179319
0.0004521
0.000828393
0.00105552
0.00114106
0.00120847
0.00127746
0.00134728
0.00140968
0.00145885
0.00149284
0.00151883
0.000155936
0.000276211
0.0004661
0.000556746
0.000584937
0.000617745
0.000658018
0.00070462
0.000750016
0.000786842
0.000809851
0.000828575
4.10347e-05
4.51252e-05
5.3967e-05
6.14743e-05
6.64018e-05
7.01587e-05
7.35376e-05
7.70073e-05
8.0497e-05
8.36383e-05
8.64586e-05
8.9098e-05
0.00333079
0.00320157
0.00305839
0.00289817
0.00272343
0.00253984
0.0023365
0.00210299
0.00181916
0.00144595
0.000885511
0.000273584
0.00326484
0.00315625
0.00302585
0.00286524
0.00267999
0.00247422
0.00223462
0.00195224
0.00161297
0.00119253
0.000605388
0.00014244
0.00318202
0.00309475
0.00298224
0.0028275
0.00264128
0.00242528
0.00216694
0.00186171
0.00150843
0.00111926
0.000617191
0.000124438
0.00308106
0.00301272
0.00292069
0.00277825
0.0026
0.00238573
0.00212562
0.00182093
0.00148431
0.00114996
0.000714476
0.000127149
0.00295805
0.00290695
0.00283429
0.00270955
0.00254616
0.00234312
0.00209366
0.00180368
0.00149147
0.00117209
0.000768421
0.00013163
0.00280664
0.00277146
0.00271591
0.0026118
0.00246791
0.00228219
0.00205004
0.00177861
0.00148217
0.00115385
0.000769994
0.000135073
0.00261519
0.002595
0.002555
0.00247191
0.00235044
0.00218508
0.00197261
0.00171844
0.00143012
0.001095
0.000728089
0.000135852
0.00236458
0.00235868
0.00233288
0.00226957
0.00217197
0.00202889
0.00183778
0.0016
0.00131963
0.000994651
0.000646153
0.000134069
0.00202316
0.00202949
0.00201735
0.00197201
0.00189569
0.00177856
0.00161754
0.00139844
0.00113385
0.000837775
0.000525667
0.000128661
0.00153903
0.00155338
0.00155276
0.00152363
0.00146694
0.00138117
0.00126626
0.00108093
0.000856961
0.000616236
0.000365121
0.000118522
0.000844648
0.000857891
0.000863083
0.000849976
0.00081987
0.000773499
0.000714819
0.000612698
0.000464648
0.000322196
0.000170973
0.000101809
9.16791e-05
9.41963e-05
9.63353e-05
9.72801e-05
9.68313e-05
9.49645e-05
9.16384e-05
8.64555e-05
7.8679e-05
6.72749e-05
5.23295e-05
3.25187e-05
0.00036765
0.00230643
0.00306754
0.00332713
0.00345409
0.00354399
0.00361327
0.00364181
0.0036436
0.00362808
0.00357272
0.00346041
0.000322933
0.0020534
0.0028565
0.00316786
0.00331008
0.0034078
0.00348261
0.00351659
0.00352366
0.00350906
0.0034633
0.00337418
0.00029937
0.00184886
0.00264135
0.00297978
0.00313842
0.00324515
0.00332675
0.00336986
0.00338665
0.00337679
0.00333973
0.00326924
0.000280981
0.00166134
0.00242087
0.00277153
0.00294422
0.00305938
0.00314741
0.00320125
0.00322801
0.0032282
0.00320119
0.00314832
0.000264482
0.00147874
0.00219391
0.00254695
0.0027296
0.00285125
0.00294448
0.00300867
0.00304482
0.00305605
0.00304335
0.00300803
0.000248298
0.00129236
0.00195685
0.00230624
0.00249355
0.00261854
0.00271529
0.00278764
0.00283329
0.00285589
0.00285743
0.00283953
0.000232224
0.00108623
0.00170496
0.00204669
0.00223141
0.00235504
0.00245282
0.00253077
0.00258509
0.00261835
0.0026329
0.00263092
0.00021629
0.000863052
0.00143302
0.00176305
0.00193362
0.00204893
0.00214379
0.00222404
0.00228501
0.00232716
0.00235265
0.00236433
0.000199206
0.000646881
0.00114168
0.00144312
0.00158307
0.00168047
0.00176626
0.00184395
0.00190753
0.00195507
0.00198805
0.00201001
0.000179342
0.000452265
0.000828689
0.0010558
0.00114134
0.00120875
0.00127774
0.00134756
0.00140994
0.00145908
0.00149304
0.001519
0.000155955
0.000276301
0.000466268
0.000556879
0.000585068
0.000617875
0.000658149
0.000704752
0.000750139
0.000786956
0.000809953
0.000828665
4.10386e-05
4.51319e-05
5.39796e-05
6.14878e-05
6.64152e-05
7.01715e-05
7.35498e-05
7.70191e-05
8.05078e-05
8.36479e-05
8.64673e-05
8.91059e-05
0.00333107
0.00320182
0.00305863
0.00289839
0.00272362
0.00253999
0.00233663
0.00210309
0.00181921
0.00144599
0.000885578
0.000273615
0.00326512
0.00315649
0.00302607
0.00286545
0.00268016
0.00247436
0.00223473
0.00195231
0.001613
0.00119255
0.000605402
0.000142449
0.00318229
0.00309497
0.00298245
0.0028277
0.00264144
0.0024254
0.00216703
0.00186176
0.00150844
0.00111926
0.000617184
0.000124444
0.00308134
0.00301293
0.0029209
0.00277845
0.00260015
0.00238585
0.00212571
0.00182097
0.00148432
0.00114996
0.000714484
0.000127155
0.00295832
0.00290716
0.00283449
0.00270974
0.00254631
0.00234323
0.00209374
0.00180372
0.00149149
0.00117213
0.000768448
0.000131636
0.00280691
0.00277168
0.0027161
0.00261198
0.00246806
0.00228231
0.00205012
0.00177867
0.00148221
0.00115392
0.000770032
0.000135079
0.00261545
0.00259521
0.00255519
0.00247208
0.00235059
0.0021852
0.0019727
0.00171851
0.00143018
0.00109508
0.000728133
0.00013586
0.00236482
0.00235888
0.00233306
0.00226973
0.00217211
0.00202901
0.00183788
0.00160008
0.0013197
0.000994733
0.000646193
0.000134076
0.00202336
0.00202966
0.0020175
0.00197215
0.00189583
0.00177868
0.00161765
0.00139852
0.00113392
0.000837836
0.000525697
0.000128668
0.00153918
0.00155351
0.00155288
0.00152375
0.00146705
0.00138127
0.00126636
0.00108101
0.000857023
0.00061628
0.000365143
0.000118528
0.000844726