/*--------------------------------*- C++ -*----------------------------------*\
| =========                 |                                                 |
| \\      /  F ield         | OpenFOAM: The Open Source CFD Toolbox           |
|  \\    /   O peration     | Version:  v1912                                 |
|   \\  /    A nd           | Website:  www.openfoam.com                      |
|    \\/     M anipulation  |                                                 |
\*---------------------------------------------------------------------------*/
FoamFile
{
    version     2.0;
    format      ascii;
    class       volScalarField;
    location    "400";
    object      p;
}
// * * * * * * * * * * * * * * * * * * * * * * * * * * * * * * * * * * * * * //

dimensions      [0 2 -2 0 0 0 0];


internalField   nonuniform List<scalar> 
3072
(
-0.000151874
-0.113838
-0.216778
-0.286649
-0.318656
-0.298933
-0.262203
-0.185872
-0.0395862
0.10534
-0.0104197
-0.268756
0.671342
0.47949
0.352926
0.285626
0.283732
0.391435
0.637298
0.882957
1.5134
2.09796
2.33204
2.4917
1.36963
1.08712
0.965717
0.961032
1.08064
1.35418
1.80765
2.22962
2.6308
2.97063
3.18627
3.3582
2.27011
2.01026
1.95758
2.06241
2.36772
2.80568
3.26199
3.67056
4.02729
4.31248
4.52815
4.70168
3.28436
3.13503
3.18272
3.41622
3.80795
4.25233
4.67148
5.03795
5.35493
5.60105
5.7889
5.93363
4.34906
4.3143
4.4684
4.78993
5.20704
5.62559
5.99988
6.31633
6.57749
6.78136
6.93848
7.05838
5.40848
5.50373
5.74532
6.11784
6.53307
6.91859
7.24508
7.51042
7.72178
7.88471
8.00902
8.10262
6.46316
6.70811
7.01171
7.40524
7.79641
8.13467
8.40734
8.62015
8.78325
8.90554
8.99683
9.06445
7.52959
7.94265
8.28191
8.6662
9.00943
9.28536
9.49526
9.65035
9.76319
9.84424
9.90287
9.94545
8.63477
9.17821
9.53739
9.89067
10.17
10.3683
10.5049
10.5966
10.6571
10.6969
10.7245
10.7441
9.78496
10.4829
10.8006
11.0439
11.2313
11.3392
11.3981
11.4279
11.4406
11.4456
11.449
11.4518
10.8101
11.8058
11.9916
12.0434
12.1097
12.1278
12.1203
12.103
12.0845
12.0701
12.0634
12.0606
-0.494951
-0.599977
-0.555567
-0.366494
-0.0525812
0.366729
0.863352
1.37794
1.8377
2.19033
2.34414
2.21466
2.57933
2.63804
2.67979
2.73655
2.81632
2.92589
3.04572
3.1662
3.26335
3.41295
3.36486
2.70478
3.46283
3.54476
3.61945
3.70621
3.80139
3.89322
3.97471
4.01798
3.9922
3.96764
3.82333
2.86162
4.82786
4.92652
5.00342
5.06231
5.10044
5.11525
5.10104
5.02564
4.86736
4.67241
4.39753
3.16347
6.03832
6.11384
6.16537
6.19561
6.2031
6.18327
6.12521
6.01386
5.81936
5.54025
5.20793
3.77291
7.14586
7.20744
7.2465
7.26446
7.26008
7.2294
7.16214
7.0449
6.8537
6.56443
6.21769
4.79005
8.17062
8.21776
8.24689
8.25934
8.25468
8.23033
8.17998
8.09268
7.94944
7.72509
7.44896
6.16537
9.11347
9.14772
9.17015
9.18264
9.18606
9.18001
9.16176
9.12591
9.06432
8.9575
8.84108
7.89311
9.97656
9.99902
10.0161
10.0306
10.0455
10.0628
10.0836
10.1099
10.148
10.1975
10.3262
9.90423
10.7594
10.7713
10.7835
10.7991
10.824
10.8638
10.9225
11.0095
11.1445
11.3568
11.8381
12.1327
11.4564
11.4607
11.4693
11.4849
11.5149
11.5697
11.6561
11.7899
11.9971
12.3442
13.2179
14.387
12.0636
12.0651
12.0724
12.0874
12.117
12.1743
12.2691
12.4213
12.649
13.0407
14.0146
15.8666
-3.86354e-05
-0.113813
-0.216869
-0.286783
-0.318839
-0.299141
-0.262411
-0.186134
-0.0399663
0.105222
-0.0102738
-0.268555
0.671344
0.479363
0.352724
0.285363
0.283421
0.391036
0.636889
0.882378
1.51257
2.09762
2.33192
2.49164
1.36967
1.08697
0.965459
0.960682
1.0802
1.3536
1.80709
2.22915
2.63035
2.97035
3.18605
3.35805
2.27018
2.01011
1.95727
2.06195
2.36713
2.80509
3.26148
3.67015
4.02696
4.31227
4.52799
4.70157
3.28446
3.13494
3.18244
3.41576
3.80745
4.2519
4.67116
5.03769
5.35474
5.60093
5.78881
5.93357
4.34921
4.31428
4.46822
4.78964
5.20676
5.62538
5.99971
6.31623
6.57741
6.78133
6.93845
7.05837
5.40865
5.50377
5.74524
6.11772
6.53297
6.91853
7.24506
7.51041
7.72179
7.88473
8.00905
8.10265
6.46336
6.70819
7.01174
7.40524
7.79644
8.13471
8.4074
8.62021
8.78331
8.9056
8.99689
9.06451
7.52978
7.94277
8.28199
8.66628
9.00952
9.28546
9.49536
9.65045
9.76328
9.84432
9.90295
9.94552
8.63495
9.17834
9.5375
9.89078
10.1701
10.3685
10.5051
10.5967
10.6572
10.697
10.7246
10.7442
9.78511
10.483
10.8007
11.044
11.2314
11.3393
11.3982
11.428
11.4407
11.4456
11.4491
11.4518
10.8102
11.8059
11.9917
12.0435
12.1097
12.1278
12.1204
12.1031
12.0846
12.0701
12.0634
12.0606
-0.494721
-0.599893
-0.555507
-0.366516
-0.0526039
0.366674
0.863323
1.37792
1.83773
2.19038
2.34421
2.21471
2.57926
2.63803
2.67976
2.73652
2.81627
2.92586
3.04569
3.16619
3.26336
3.41299
3.36491
2.7048
3.46274
3.5447
3.6194
3.70616
3.80134
3.89319
3.97468
4.01796
3.99219
3.96765
3.82335
2.86159
4.82778
4.92646
5.00337
5.06227
5.10041
5.11522
5.10102
5.02562
4.86735
4.67239
4.39751
3.16341
6.03829
6.11381
6.16536
6.1956
6.20308
6.18326
6.12519
6.01385
5.81934
5.54022
5.2079
3.77283
7.14586
7.20744
7.2465
7.26446
7.26008
7.22939
7.16214
7.04489
6.85369
6.5644
6.21766
4.78998
8.17065
8.21779
8.24691
8.25936
8.25469
8.23035
8.17999
8.09268
7.94944
7.72507
7.44894
6.16531
9.11351
9.14776
9.17019
9.18267
9.18609
9.18004
9.16179
9.12593
9.06434
8.95752
8.84108
7.8931
9.97661
9.99907
10.0162
10.0307
10.0455
10.0628
10.0837
10.11
10.1481
10.1975
10.3263
9.90429
10.7594
10.7714
10.7835
10.7992
10.8241
10.8639
10.9225
11.0096
11.1446
11.3569
11.8382
12.1328
11.4564
11.4607
11.4693
11.4849
11.515
11.5697
11.6562
11.79
11.9972
12.3443
13.218
14.3873
12.0637
12.0651
12.0725
12.0874
12.117
12.1744
12.2692
12.4213
12.6491
13.0409
14.0147
15.8669
5.51052e-05
-0.1137
-0.216705
-0.28658
-0.318578
-0.298824
-0.262101
-0.185754
-0.0394133
0.105378
-0.010466
-0.268719
0.671494
0.479585
0.353033
0.285746
0.28388
0.391703
0.637596
0.883355
1.51393
2.09821
2.33219
2.49185
1.36989
1.08738
0.966032
0.961408
1.08106
1.35474
1.8082
2.23012
2.63128
2.97098
3.18659
3.35851
2.27051
2.01078
1.95821
2.06314
2.36856
2.80646
3.26264
3.67111
4.02776
4.31287
4.5285
4.70201
3.28485
3.13568
3.18352
3.41715
3.80884
4.25308
4.67209
5.03846
5.35536
5.60142
5.78923
5.93394
4.34951
4.31495
4.4692
4.79077
5.20779
5.62619
6.00037
6.31674
6.57785
6.78168
6.93878
7.05867
5.40882
5.50431
5.74601
6.11853
6.53364
6.91905
7.24545
7.51073
7.72206
7.88499
8.00928
8.10288
6.46338
6.70859
7.01226
7.40576
7.79684
8.13501
8.40762
8.6204
8.78348
8.90577
8.99707
9.06469
7.52975
7.94304
8.28234
8.6666
9.00975
9.28562
9.49548
9.65055
9.76338
9.84444
9.90308
9.94567
8.63491
9.17854
9.53773
9.89097
10.1703
10.3685
10.5051
10.5968
10.6572
10.6971
10.7247
10.7443
9.7851
10.4832
10.8009
11.0441
11.2315
11.3393
11.3982
11.428
11.4408
11.4457
11.4492
11.4519
10.8102
11.8061
11.9918
12.0436
12.1098
12.1278
12.1203
12.1031
12.0846
12.0702
12.0635
12.0607
-0.49483
-0.599711
-0.55523
-0.366088
-0.0521546
0.367164
0.863759
1.3783
1.83802
2.19059
2.34436
2.2149
2.57953
2.63826
2.68006
2.73685
2.81665
2.92623
3.04605
3.16652
3.26365
3.4132
3.36508
2.70505
3.46314
3.54507
3.61978
3.70654
3.80173
3.89356
3.97504
4.0183
3.99252
3.96794
3.82361
2.86195
4.82818
4.92684
5.00373
5.06263
5.10077
5.11558
5.10138
5.02598
4.8677
4.67276
4.39786
3.16388
6.03862
6.11414
6.16568
6.19592
6.20342
6.1836
6.12554
6.0142
5.81972
5.54062
5.2083
3.77336
7.14615
7.20773
7.2468
7.26476
7.26039
7.22971
7.16248
7.04524
6.85406
6.56482
6.21809
4.79054
8.17088
8.21803
8.24717
8.25963
8.25497
8.23064
8.1803
8.09301
7.9498
7.72548
7.44938
6.16588
9.11371
9.14796
9.17041
9.18291
9.18634
9.1803
9.16207
9.12623
9.06467
8.9579
8.84152
7.89364
9.97678
9.99925
10.0164
10.0309
10.0457
10.0631
10.0839
10.1102
10.1484
10.1979
10.3267
9.90476
10.7596
10.7715
10.7837
10.7994
10.8243
10.8641
10.9227
11.0098
11.1448
11.3572
11.8385
12.1332
11.4565
11.4609
11.4695
11.4851
11.5152
11.5699
11.6564
11.7902
11.9974
12.3445
13.2183
14.3875
12.0638
12.0653
12.0726
12.0876
12.1172
12.1745
12.2694
12.4215
12.6492
13.041
14.0149
15.8669
-9.37424e-05
-0.11387
-0.216925
-0.286835
-0.318882
-0.299174
-0.262448
-0.186147
-0.0399159
0.105179
-0.0104552
-0.268787
0.671292
0.479311
0.352679
0.285332
0.283409
0.391065
0.636927
0.882519
1.51285
2.09773
2.33193
2.49163
1.36962
1.08693
0.965432
0.960677
1.08023
1.3537
1.80721
2.22926
2.63047
2.97042
3.18609
3.35808
2.27014
2.01008
1.95726
2.06198
2.36721
2.80521
3.26161
3.67027
4.02707
4.31234
4.52805
4.70162
3.28443
3.13492
3.18244
3.41581
3.80755
4.25202
4.67127
5.0378
5.35484
5.601
5.78888
5.93363
4.34918
4.31427
4.46824
4.7897
5.20685
5.62549
5.99982
6.31634
6.57751
6.78141
6.93853
7.05844
5.40863
5.50376
5.74526
6.11778
6.53306
6.91864
7.24517
7.51051
7.72188
7.88482
8.00913
8.10272
6.46334
6.70819
7.01177
7.40531
7.79653
8.13482
8.4075
8.62032
8.78341
8.90569
8.99697
9.06458
7.52976
7.94278
8.28202
8.66635
9.00961
9.28556
9.49546
9.65055
9.76338
9.84441
9.90303
9.94559
8.63493
9.17835
9.53754
9.89085
10.1702
10.3686
10.5051
10.5968
10.6572
10.6971
10.7247
10.7442
9.7851
10.483
10.8008
11.0441
11.2315
11.3394
11.3983
11.428
11.4408
11.4457
11.4492
11.4519
10.8102
11.806
11.9917
12.0436
12.1098
12.128
12.1205
12.1032
12.0847
12.0702
12.0635
12.0607
-0.49498
-0.600091
-0.555682
-0.366636
-0.0526893
0.366641
0.863322
1.37795
1.83778
2.19047
2.34432
2.2148
2.57925
2.63799
2.67974
2.73651
2.81628
2.92589
3.04573
3.16626
3.26344
3.41309
3.365
2.70487
3.46274
3.5447
3.6194
3.70617
3.80136
3.89322
3.97473
4.01801
3.99225
3.96771
3.8234
2.86164
4.82782
4.92649
5.00339
5.0623
5.10045
5.11526
5.10106
5.02567
4.8674
4.67245
4.39756
3.16345
6.03833
6.11385
6.16539
6.19563
6.20312
6.1833
6.12524
6.01389
5.81938
5.54027
5.20795
3.77288
7.14591
7.20749
7.24655
7.26451
7.26013
7.22944
7.16219
7.04494
6.85374
6.56446
6.21772
4.79005
8.17071
8.21784
8.24697
8.25941
8.25474
8.23039
8.18004
8.09273
7.94949
7.72514
7.44901
6.16541
9.11358
9.14781
9.17024
9.18272
9.18613
9.18008
9.16183
9.12598
9.06439
8.95759
8.84118
7.89323
9.97668
9.99912
10.0162
10.0307
10.0456
10.0629
10.0837
10.11
10.1481
10.1976
10.3264
9.90444
10.7595
10.7714
10.7836
10.7992
10.8241
10.8639
10.9225
11.0096
11.1446
11.357
11.8383
12.133
11.4565
11.4608
11.4693
11.485
11.515
11.5698
11.6562
11.79
11.9972
12.3444
13.2181
14.3874
12.0637
12.0652
12.0725
12.0874
12.117
12.1744
12.2692
12.4213
12.6491
13.0409
14.0147
15.8669
12.8481
13.0084
12.8968
12.7811
12.7276
12.6815
12.6365
12.5982
12.5724
12.5599
12.5618
12.5686
13.2342
13.0966
13.0854
13.0384
13.0086
12.9756
12.9417
12.9174
12.9115
12.9236
12.9536
12.9862
13.4066
13.3117
13.2768
13.2183
13.1741
13.1385
13.1156
13.1142
13.1403
13.1918
13.2662
13.3402
13.5366
13.4528
13.3827
13.3052
13.2414
13.1981
13.1846
13.2115
13.2845
13.4002
13.5495
13.7027
12.5825
12.5867
12.596
12.6094
12.6336
12.6815
12.7645
12.9031
13.0906
13.365
13.6868
14.615
13.0245
13.0351
13.049
13.0576
13.0695
13.0969
13.1523
13.2573
13.3918
13.5877
13.6671
13.9519
13.4134
13.427
13.4461
13.4433
13.434
13.4296
13.4422
13.4947
13.565
13.698
13.7076
13.7944
13.826
13.823
13.842
13.814
13.7669
13.7099
13.6539
13.6236
13.6073
13.6656
13.6465
13.7146
12.8482
13.0085
12.8969
12.7812
12.7276
12.6815
12.6366
12.5982
12.5724
12.5599
12.5618
12.5686
13.2343
13.0967
13.0855
13.0385
13.0087
12.9756
12.9417
12.9175
12.9115
12.9236
12.9536
12.9862
13.4067
13.3118
13.2768
13.2183
13.1741
13.1385
13.1156
13.1142
13.1403
13.1918
13.2662
13.3402
13.5367
13.4528
13.3827
13.3053
13.2415
13.1981
13.1846
13.2115
13.2845
13.4002
13.5495
13.7027
12.5825
12.5867
12.596
12.6094
12.6336
12.6815
12.7646
12.9032
13.0907
13.3651
13.6869
14.6152
13.0245
13.0351
13.049
13.0576
13.0695
13.0969
13.1523
13.2573
13.3919
13.5878
13.6672
13.952
13.4134
13.427
13.4461
13.4433
13.4339
13.4296
13.4422
13.4947
13.565
13.6981
13.7076
13.7945
13.826
13.8229
13.842
13.8139
13.7669
13.7099
13.6539
13.6236
13.6073
13.6657
13.6466
13.7147
12.8483
13.0086
12.897
12.7812
12.7276
12.6815
12.6366
12.5982
12.5724
12.56
12.5619
12.5687
13.2344
13.0968
13.0856
13.0385
13.0087
12.9756
12.9417
12.9174
12.9115
12.9236
12.9536
12.9862
13.4067
13.3118
13.2769
13.2183
13.1741
13.1385
13.1155
13.1141
13.1402
13.1918
13.2662
13.3403
13.5367
13.4529
13.3828
13.3053
13.2415
13.1981
13.1845
13.2114
13.2844
13.4001
13.5495
13.7028
12.5826
12.5868
12.5961
12.6096
12.6337
12.6817
12.7647
12.9033
13.0908
13.3652
13.687
14.6153
13.0245
13.0352
13.0491
13.0578
13.0697
13.0971
13.1525
13.2575
13.392
13.5878
13.6673
13.9522
13.4135
13.4271
13.4462
13.4434
13.4341
13.4297
13.4423
13.4949
13.5652
13.6982
13.7077
13.7947
13.8261
13.823
13.8421
13.814
13.767
13.71
13.6541
13.6238
13.6075
13.6659
13.6468
13.7149
12.8483
13.0086
12.897
12.7813
12.7278
12.6817
12.6368
12.5984
12.5725
12.5601
12.5619
12.5687
13.2345
13.0969
13.0857
13.0387
13.0089
12.9759
12.9419
12.9177
12.9117
12.9238
12.9537
12.9863
13.4069
13.312
13.2771
13.2186
13.1744
13.1388
13.1159
13.1145
13.1405
13.1921
13.2663
13.3404
13.537
13.4531
13.383
13.3056
13.2418
13.1985
13.185
13.2119
13.2848
13.4005
13.5497
13.7029
12.5826
12.5867
12.596
12.6094
12.6336
12.6815
12.7645
12.9032
13.0906
13.3651
13.6869
14.6151
13.0245
13.0351
13.049
13.0576
13.0695
13.0969
13.1523
13.2573
13.3918
13.5877
13.6671
13.9519
13.4135
13.427
13.4461
13.4432
13.4339
13.4295
13.4421
13.4946
13.5649
13.698
13.7075
13.7944
13.826
13.8229
13.842
13.8139
13.7669
13.7098
13.6538
13.6235
13.6072
13.6656
13.6465
13.7146
13.6535
13.5901
13.5161
13.44
13.3718
13.3214
13.3001
13.3185
13.383
13.492
13.6361
13.801
13.7668
13.7105
13.6466
13.5827
13.5234
13.4754
13.4473
13.4482
13.484
13.555
13.6551
13.778
13.8541
13.8021
13.7446
13.6868
13.6301
13.5798
13.5433
13.5295
13.5462
13.5965
13.6785
13.7877
13.9191
13.8697
13.8151
13.7586
13.6997
13.643
13.5956
13.5675
13.57
13.6109
13.6901
13.7512
13.9892
14.0067
14.0392
14.015
13.9708
13.9088
13.8404
13.7814
13.7305
13.7303
13.6887
13.7243
14.007
14.021
14.0668
14.0604
14.0409
14.0073
13.9693
13.9355
13.9028
13.8912
13.8484
13.8373
14.0888
14.0621
14.1103
14.1125
14.1046
14.0845
14.0603
14.036
14.0091
13.9895
13.9471
13.9182
14.2829
14.1418
14.1633
14.1638
14.1588
14.1447
14.1264
14.1054
14.0795
14.054
14.0117
13.9759
13.6535
13.5902
13.5161
13.44
13.3718
13.3214
13.3001
13.3185
13.383
13.492
13.6361
13.801
13.7669
13.7105
13.6466
13.5827
13.5234
13.4754
13.4473
13.4482
13.484
13.5549
13.6551
13.778
13.8541
13.8021
13.7446
13.6868
13.6302
13.5798
13.5432
13.5294
13.5461
13.5964
13.6785
13.7877
13.9191
13.8697
13.8151
13.7586
13.6997
13.6429
13.5955
13.5675
13.57
13.6109
13.6901
13.7511
13.9892
14.0067
14.0392
14.015
13.9708
13.9088
13.8404
13.7814
13.7305
13.7303
13.6888
13.7243
14.007
14.021
14.0668
14.0604
14.0409
14.0073
13.9694
13.9355
13.9028
13.8913
13.8484
13.8373
14.0888
14.0621
14.1103
14.1125
14.1046
14.0845
14.0603
14.0361
14.0091
13.9896
13.9472
13.9183
14.283
14.1418
14.1633
14.1638
14.1588
14.1447
14.1264
14.1054
14.0795
14.0541
14.0118
13.9759
13.6536
13.5902
13.5162
13.44
13.3718
13.3214
13.3
13.3184
13.3829
13.4919
13.6361
13.801
13.7669
13.7106
13.6467
13.5827
13.5234
13.4753
13.4472
13.4481
13.484
13.5549
13.6551
13.778
13.8542
13.8022
13.7447
13.6868
13.6302
13.5798
13.5432
13.5294
13.5461
13.5964
13.6785
13.7877
13.9192
13.8698
13.8152
13.7586
13.6998
13.643
13.5955
13.5674
13.57
13.6108
13.6901
13.7512
13.9893
14.0068
14.0393
14.0151
13.9709
13.9089
13.8406
13.7816
13.7307
13.7305
13.6889
13.7245
14.0072
14.0211
14.0669
14.0606
14.0411
14.0075
13.9695
13.9357
13.903
13.8915
13.8487
13.8375
14.089
14.0622
14.1105
14.1127
14.1048
14.0847
14.0605
14.0363
14.0093
13.9898
13.9474
13.9185
14.2832
14.142
14.1635
14.164
14.159
14.1449
14.1266
14.1056
14.0797
14.0543
14.012
13.9761
13.6538
13.5905
13.5165
13.4403
13.3722
13.3218
13.3005
13.3189
13.3834
13.4924
13.6364
13.8012
13.7671
13.7108
13.647
13.583
13.5238
13.4757
13.4477
13.4486
13.4844
13.5553
13.6554
13.7782
13.8544
13.8024
13.7449
13.6871
13.6305
13.5801
13.5436
13.5298
13.5465
13.5967
13.6788
13.7879
13.9194
13.87
13.8154
13.7589
13.7001
13.6433
13.5959
13.5678
13.5703
13.6112
13.6904
13.7514
13.9892
14.0067
14.0391
14.0149
13.9707
13.9087
13.8403
13.7813
13.7304
13.7302
13.6886
13.7242
14.0071
14.021
14.0668
14.0604
14.0409
14.0072
13.9693
13.9354
13.9027
13.8912
13.8484
13.8372
14.0889
14.0621
14.1103
14.1124
14.1046
14.0845
14.0602
14.036
14.009
13.9895
13.9471
13.9182
14.283
14.1418
14.1633
14.1638
14.1588
14.1447
14.1264
14.1053
14.0795
14.054
14.0117
13.9758
13.9658
13.9168
13.8621
13.8033
13.7389
13.6727
13.612
13.5673
13.5505
13.5633
13.605
13.5105
13.9973
13.9469
13.8898
13.8261
13.7542
13.6774
13.6028
13.5418
13.507
13.4974
13.5372
13.5242
14.0171
13.9643
13.9032
13.8336
13.7538
13.667
13.581
13.509
13.4664
13.4571
13.4941
13.5158
14.0283
13.9726
13.9074
13.8319
13.7453
13.6509
13.5577
13.4814
13.4395
13.4375
13.4759
13.5139
14.0337
13.9754
13.9065
13.8262
13.7344
13.6354
13.5393
13.4638
13.4266
13.432
13.4759
13.5228
14.0356
13.9753
13.9036
13.8199
13.7251
13.624
13.5282
13.4565
13.4252
13.438
13.4896
13.5404
14.0361
13.9743
13.901
13.8153
13.7191
13.618
13.5242
13.4574
13.4321
13.4517
13.5102
13.5633
14.0367
13.9742
13.9003
13.814
13.7177
13.6175
13.5265
13.4645
13.4442
13.4697
13.5339
13.5877
14.0387
13.9764
13.9029
13.817
13.7215
13.6226
13.5337
13.4757
13.4583
13.4882
13.5561
13.6105
14.0441
13.9834
13.9115
13.8268
13.7325
13.6342
13.5457
13.4893
13.4713
13.503
13.5728
13.629
14.0546
13.9974
13.9286
13.8463
13.7533
13.6545
13.5637
13.5054
13.4819
13.5128
13.5855
13.6394
14.0648
14.0116
13.947
13.8686
13.7784
13.6806
13.5906
13.5208
13.4954
13.524
13.5935
13.6416
14.6397
14.307
14.2216
14.2091
14.2015
14.1896
14.174
14.1541
14.1284
14.0996
14.0576
14.0182
14.6169
14.3757
14.2632
14.2425
14.2337
14.2225
14.2078
14.1879
14.1618
14.1309
14.0894
14.048
14.5564
14.3706
14.2889
14.2652
14.2571
14.2463
14.2316
14.211
14.184
14.1515
14.1104
14.0675
14.4944
14.351
14.3037
14.2808
14.2739
14.2633
14.2482
14.2265
14.1983
14.1644
14.1232
14.0792
14.4445
14.3358
14.3124
14.2921
14.2859
14.2755
14.2595
14.2366
14.2071
14.172
14.1305
14.0855
14.4127
14.328
14.3184
14.3009
14.2949
14.2841
14.2671
14.243
14.2122
14.1761
14.1344
14.0884
14.3992
14.3289
14.324
14.3085
14.302
14.2902
14.2721
14.2468
14.2149
14.1781
14.1362
14.0896
14.3996
14.3395
14.3304
14.3155
14.3073
14.2941
14.2751
14.2487
14.2162
14.1789
14.1371
14.0905
14.4091
14.3578
14.3379
14.3218
14.3105
14.2959
14.2761
14.2493
14.2164
14.1793
14.1382
14.0921
14.4229
14.3799
14.3468
14.326
14.3102
14.294
14.2744
14.2481
14.2159
14.18
14.1404
14.0959
14.44
14.3991
14.357
14.3278
14.3066
14.2887
14.2694
14.2445
14.2143
14.181
14.1444
14.103
14.4578
14.4149
14.3644
14.3309
14.3056
14.2857
14.2655
14.241
14.2128
14.1821
14.148
14.1096
13.9658
13.9168
13.8621
13.8033
13.7389
13.6727
13.6119
13.5672
13.5504
13.5632
13.605
13.5104
13.9974
13.947
13.8898
13.8261
13.7542
13.6774
13.6027
13.5418
13.507
13.4974
13.5371
13.5242
14.0172
13.9643
13.9032
13.8336
13.7538
13.667
13.581
13.509
13.4664
13.457
13.4941
13.5157
14.0284
13.9726
13.9074
13.8319
13.7452
13.6508
13.5577
13.4813
13.4394
13.4374
13.4759
13.5138
14.0337
13.9754
13.9065
13.8262
13.7344
13.6354
13.5393
13.4638
13.4265
13.4319
13.4759
13.5227
14.0356
13.9753
13.9036
13.8198
13.725
13.624
13.5281
13.4564
13.4251
13.4379
13.4895
13.5403
14.0361
13.9743
13.901
13.8153
13.7191
13.618
13.5242
13.4574
13.432
13.4516
13.5101
13.5632
14.0367
13.9742
13.9003
13.8139
13.7177
13.6175
13.5264
13.4645
13.4441
13.4696
13.5338
13.5877
14.0387
13.9765
13.9029
13.817
13.7215
13.6225
13.5337
13.4756
13.4582
13.4881
13.5561
13.6105
14.0441
13.9834
13.9115
13.8268
13.7325
13.6342
13.5456
13.4893
13.4712
13.5029
13.5728
13.629
14.0546
13.9974
13.9286
13.8463
13.7532
13.6545
13.5636
13.5053
13.4818
13.5128
13.5855
13.6393
14.0648
14.0116
13.947
13.8686
13.7784
13.6806
13.5906
13.5207
13.4953
13.524
13.5934
13.6416
14.6398
14.307
14.2216
14.2091
14.2015
14.1897
14.174
14.1542
14.1285
14.0996
14.0576
14.0183
14.617
14.3758
14.2633
14.2426
14.2337
14.2225
14.2079
14.188
14.1619
14.131
14.0895
14.0481
14.5564
14.3706
14.289
14.2652
14.2572
14.2463
14.2317
14.2111
14.1841
14.1516
14.1104
14.0676
14.4944
14.3511
14.3037
14.2808
14.2739
14.2634
14.2482
14.2266
14.1983
14.1644
14.1233
14.0793
14.4446
14.3359
14.3125
14.2922
14.2859
14.2756
14.2596
14.2367
14.2072
14.172
14.1306
14.0856
14.4128
14.3281
14.3185
14.301
14.295
14.2842
14.2672
14.243
14.2123
14.1761
14.1344
14.0884
14.3993
14.329
14.3241
14.3085
14.3021
14.2902
14.2722
14.2468
14.215
14.1781
14.1362
14.0897
14.3996
14.3395
14.3304
14.3156
14.3074
14.2942
14.2751
14.2488
14.2162
14.179
14.1372
14.0905
14.4092
14.3579
14.338
14.3219
14.3106
14.2959
14.2762
14.2494
14.2165
14.1794
14.1383
14.0922
14.423
14.38
14.3469
14.3261
14.3103
14.2941
14.2745
14.2482
14.216
14.18
14.1405
14.0959
14.44
14.3992
14.3571
14.3278
14.3066
14.2888
14.2695
14.2445
14.2144
14.1811
14.1444
14.103
14.4579
14.4149
14.3644
14.331
14.3056
14.2858
14.2656
14.2411
14.2129
14.1821
14.1481
14.1097
13.9659
13.9169
13.8622
13.8033
13.7389
13.6727
13.6119
13.5672
13.5504
13.5632
13.6049
13.5104
13.9975
13.947
13.8899
13.8262
13.7542
13.6774
13.6027
13.5418
13.5069
13.4973
13.5371
13.5241
14.0172
13.9643
13.9033
13.8336
13.7538
13.667
13.581
13.5089
13.4663
13.457
13.494
13.5157
14.0284
13.9727
13.9075
13.832
13.7453
13.6509
13.5577
13.4813
13.4394
13.4374
13.4758
13.5138
14.0338
13.9755
13.9065
13.8262
13.7345
13.6354
13.5393
13.4637
13.4264
13.4318
13.4758
13.5227
14.0357
13.9753
13.9037
13.8199
13.7251
13.624
13.5281
13.4563
13.425
13.4378
13.4895
13.5403
14.0362
13.9744
13.9011
13.8153
13.7191
13.618
13.5242
13.4573
13.432
13.4515
13.51
13.5632
14.0367
13.9743
13.9004
13.814
13.7177
13.6175
13.5264
13.4644
13.444
13.4695
13.5338
13.5876
14.0388
13.9765
13.903
13.817
13.7215
13.6226
13.5336
13.4756
13.4582
13.4881
13.556
13.6105
14.0442
13.9835
13.9115
13.8268
13.7325
13.6342
13.5456
13.4892
13.4711
13.5028
13.5727
13.6289
14.0547
13.9974
13.9287
13.8464
13.7533
13.6545
13.5636
13.5053
13.4818
13.5127
13.5854
13.6393
14.0649
14.0117
13.947
13.8687
13.7785
13.6806
13.5906
13.5207
13.4953
13.5239
13.5934
13.6415
14.6402
14.3073
14.2218
14.2093
14.2017
14.1899
14.1743
14.1544
14.1287
14.0998
14.0578
14.0185
14.6174
14.3761
14.2635
14.2428
14.2339
14.2228
14.2081
14.1882
14.1621
14.1312
14.0897
14.0483
14.5568
14.3709
14.2892
14.2654
14.2574
14.2465
14.2319
14.2113
14.1843
14.1518
14.1106
14.0678
14.4948
14.3514
14.304
14.2811
14.2741
14.2636
14.2484
14.2268
14.1986
14.1647
14.1235
14.0795
14.4449
14.3362
14.3127
14.2924
14.2862
14.2758
14.2598
14.2369
14.2074
14.1722
14.1308
14.0857
14.4131
14.3283
14.3188
14.3012
14.2952
14.2844
14.2674
14.2433
14.2125
14.1763
14.1346
14.0886
14.3996
14.3293
14.3243
14.3088
14.3023
14.2905
14.2724
14.247
14.2152
14.1783
14.1364
14.0898
14.3999
14.3398
14.3307
14.3158
14.3076
14.2944
14.2754
14.249
14.2164
14.1792
14.1374
14.0907
14.4095
14.3582
14.3383
14.3221
14.3108
14.2962
14.2764
14.2496
14.2167
14.1796
14.1385
14.0923
14.4233
14.3803
14.3471
14.3263
14.3105
14.2943
14.2747
14.2484
14.2162
14.1802
14.1407
14.0961
14.4404
14.3995
14.3574
14.3281
14.3069
14.289
14.2697
14.2447
14.2146
14.1813
14.1446
14.1032
14.4583
14.4153
14.3647
14.3313
14.3059
14.286
14.2658
14.2413
14.2131
14.1823
14.1483
14.1099
13.9661
13.9171
13.8624
13.8036
13.7392
13.673
13.6122
13.5675
13.5507
13.5635
13.6052
13.5107
13.9977
13.9472
13.8901
13.8264
13.7545
13.6776
13.603
13.5421
13.5073
13.4976
13.5374
13.5245
14.0174
13.9645
13.9035
13.8339
13.754
13.6672
13.5812
13.5093
13.4666
13.4573
13.4943
13.516
14.0286
13.9729
13.9077
13.8322
13.7455
13.6511
13.5579
13.4816
13.4397
13.4377
13.4761
13.5141
14.0339
13.9757
13.9067
13.8264
13.7347
13.6356
13.5396
13.4641
13.4268
13.4322
13.4762
13.523
14.0359
13.9755
13.9038
13.8201
13.7253
13.6242
13.5284
13.4567
13.4254
13.4382
13.4898
13.5406
14.0363
13.9746
13.9012
13.8155
13.7193
13.6182
13.5245
13.4577
13.4323
13.4519
13.5104
13.5635
14.0369
13.9745
13.9005
13.8142
13.7179
13.6178
13.5267
13.4648
13.4444
13.4699
13.5341
13.5879
14.0389
13.9767
13.9032
13.8172
13.7217
13.6228
13.5339
13.4759
13.4585
13.4884
13.5564
13.6108
14.0443
13.9836
13.9117
13.827
13.7327
13.6345
13.5459
13.4896
13.4715
13.5032
13.573
13.6292
14.0549
13.9976
13.9288
13.8466
13.7535
13.6547
13.5639
13.5056
13.4821
13.5131
13.5857
13.6396
14.0651
14.0118
13.9472
13.8688
13.7787
13.6808
13.5908
13.521
13.4956
13.5242
13.5937
13.6418
14.6398
14.307
14.2216
14.2091
14.2015
14.1896
14.174
14.1541
14.1284
14.0995
14.0575
14.0182
14.617
14.3758
14.2633
14.2425
14.2337
14.2225
14.2078
14.1879
14.1618
14.1309
14.0894
14.048
14.5564
14.3706
14.2889
14.2652
14.2571
14.2463
14.2316
14.211
14.184
14.1515
14.1103
14.0675
14.4944
14.351
14.3037
14.2808
14.2739
14.2633
14.2482
14.2265
14.1983
14.1644
14.1232
14.0792
14.4446
14.3358
14.3124
14.2921
14.2859
14.2755
14.2595
14.2366
14.2071
14.172
14.1305
14.0855
14.4127
14.328
14.3185
14.3009
14.295
14.2842
14.2672
14.243
14.2122
14.1761
14.1343
14.0884
14.3992
14.3289
14.324
14.3085
14.302
14.2902
14.2721
14.2468
14.2149
14.1781
14.1361
14.0896
14.3996
14.3395
14.3304
14.3155
14.3073
14.2941
14.2751
14.2487
14.2161
14.1789
14.1371
14.0904
14.4092
14.3578
14.3379
14.3218
14.3105
14.2959
14.2761
14.2493
14.2164
14.1793
14.1382
14.0921
14.4229
14.3799
14.3468
14.326
14.3102
14.2941
14.2744
14.2481
14.2159
14.1799
14.1404
14.0959
14.44
14.3991
14.357
14.3278
14.3066
14.2888
14.2694
14.2445
14.2143
14.181
14.1443
14.1029
14.4579
14.4149
14.3644
14.3309
14.3056
14.2857
14.2655
14.241
14.2128
14.1821
14.148
14.1096
)
;

boundaryField
{
    rotor
    {
        type            zeroGradient;
    }
    stator
    {
        type            zeroGradient;
    }
    front
    {
        type            empty;
    }
    back
    {
        type            empty;
    }
}


// ************************************************************************* //
