/*--------------------------------*- C++ -*----------------------------------*\
| =========                 |                                                 |
| \\      /  F ield         | OpenFOAM: The Open Source CFD Toolbox           |
|  \\    /   O peration     | Version:  v1912                                 |
|   \\  /    A nd           | Website:  www.openfoam.com                      |
|    \\/     M anipulation  |                                                 |
\*---------------------------------------------------------------------------*/
FoamFile
{
    version     2.0;
    format      ascii;
    class       surfaceScalarField;
    location    "400";
    object      phi;
}
// * * * * * * * * * * * * * * * * * * * * * * * * * * * * * * * * * * * * * //

dimensions      [0 3 -1 0 0 0 0];
oriented        oriented;


internalField   nonuniform List<scalar> 
5952
(
5.16663e-06
-5.15823e-06
8.75766e-06
-3.59211e-06
1.14661e-05
-2.70793e-06
1.29094e-05
-1.44348e-06
1.29215e-05
-1.16967e-08
1.08623e-05
2.06164e-06
6.11714e-06
4.74521e-06
-1.33277e-06
7.452e-06
-1.50495e-05
1.37164e-05
-2.88923e-05
1.38429e-05
-3.91182e-05
1.02255e-05
7.98478e-06
-4.71033e-05
1.56342e-06
-6.72113e-06
3.79386e-06
-5.82317e-06
3.82447e-06
-2.73796e-06
1.82758e-06
5.53647e-07
-2.7226e-06
4.53935e-06
-1.11598e-05
1.04997e-05
-2.29563e-05
1.65421e-05
-3.39463e-05
1.84423e-05
-3.87816e-05
1.85518e-05
-4.10688e-05
1.613e-05
-4.35933e-05
1.27501e-05
1.00612e-05
-4.56699e-05
1.13614e-06
-7.85717e-06
6.38996e-07
-5.32614e-06
-1.89986e-06
-1.98867e-07
-7.55834e-06
6.21242e-06
-1.65423e-05
1.35237e-05
-2.53457e-05
1.93035e-05
-3.04229e-05
2.16196e-05
-3.31699e-05
2.11894e-05
-3.41967e-05
1.95787e-05
-3.47432e-05
1.66764e-05
-3.55878e-05
1.35946e-05
1.07379e-05
-3.62646e-05
-1.89532e-06
-5.96176e-06
-5.12642e-06
-2.09499e-06
-1.01318e-05
4.80669e-06
-1.65825e-05
1.26633e-05
-2.22584e-05
1.91998e-05
-2.55145e-05
2.25598e-05
-2.67874e-05
2.28926e-05
-2.71475e-05
2.15497e-05
-2.71003e-05
1.95315e-05
-2.71144e-05
1.66904e-05
-2.7252e-05
1.37321e-05
1.08397e-05
-2.73539e-05
-3.74888e-06
-2.21257e-06
-8.71924e-06
2.87552e-06
-1.37274e-05
9.8151e-06
-1.78552e-05
1.67914e-05
-2.01578e-05
2.15027e-05
-2.06691e-05
2.30713e-05
-2.03131e-05
2.25367e-05
-1.96746e-05
2.09114e-05
-1.88945e-05
1.87514e-05
-1.83362e-05
1.61321e-05
-1.79787e-05
1.33745e-05
1.05915e-05
-1.77306e-05
-4.85028e-06
2.63796e-06
-9.59641e-06
7.62212e-06
-1.32305e-05
1.34495e-05
-1.51251e-05
1.86865e-05
-1.52451e-05
2.16232e-05
-1.43162e-05
2.21427e-05
-1.30179e-05
2.12387e-05
-1.17058e-05
1.95993e-05
-1.05119e-05
1.75576e-05
-9.58366e-06
1.52038e-05
-8.90682e-06
1.26977e-05
1.01081e-05
-8.42351e-06
-5.03612e-06
7.67506e-06
-8.9764e-06
1.15629e-05
-1.1081e-05
1.55546e-05
-1.11372e-05
1.87432e-05
-9.73893e-06
2.02253e-05
-7.76691e-06
2.01711e-05
-5.73669e-06
1.92087e-05
-3.87981e-06
1.77427e-05
-2.28707e-06
1.5965e-05
-1.01889e-06
1.39358e-05
-5.48909e-08
1.17337e-05
9.40025e-06
6.52999e-07
-4.94308e-06
1.26186e-05
-7.81692e-06
1.44371e-05
-8.32679e-06
1.60649e-05
-6.82955e-06
1.72463e-05
-4.24676e-06
1.76428e-05
-1.38604e-06
1.73106e-05
1.33612e-06
1.64867e-05
3.74079e-06
1.53382e-05
5.76738e-06
1.39385e-05
7.39795e-06
1.23053e-05
8.66509e-06
1.04666e-05
8.44665e-06
9.61874e-06
-4.38108e-06
1.70002e-05
-6.05034e-06
1.61066e-05
-4.85212e-06
1.48668e-05
-1.96121e-06
1.43555e-05
1.6694e-06
1.40124e-05
5.34165e-06
1.36385e-05
8.70488e-06
1.31236e-05
1.16209e-05
1.24223e-05
1.40564e-05
1.15032e-05
1.60229e-05
1.03387e-05
1.75695e-05
8.92016e-06
7.26224e-06
1.87539e-05
-3.9748e-06
2.0975e-05
-2.95481e-06
1.50867e-05
7.21349e-07
1.11907e-05
5.09518e-06
9.98177e-06
9.62216e-06
9.48552e-06
1.38637e-05
9.39705e-06
1.76037e-05
9.38382e-06
2.07776e-05
9.24842e-06
2.33967e-05
8.88416e-06
2.55056e-05
8.22987e-06
2.71732e-05
7.25256e-06
5.96997e-06
2.84655e-05
4.72377e-07
2.05028e-05
5.98683e-06
9.57229e-06
1.18873e-05
5.29023e-06
1.72664e-05
4.60275e-06
2.20021e-05
4.74989e-06
2.60675e-05
5.33176e-06
2.94978e-05
5.95362e-06
3.23419e-05
6.40447e-06
3.46601e-05
6.56604e-06
3.65162e-05
6.37379e-06
3.79903e-05
5.77859e-06
4.81503e-06
3.91453e-05
2.01742e-05
3.28541e-07
2.83855e-05
1.36094e-06
3.34601e-05
2.15552e-07
3.7377e-05
6.85831e-07
4.04221e-05
1.70488e-06
4.29274e-05
2.82651e-06
4.50312e-05
3.84994e-06
4.67769e-05
4.65882e-06
4.81976e-05
5.14541e-06
4.9327e-05
5.24446e-06
5.02308e-05
4.87479e-06
5.0953e-05
4.09282e-06
-5.27068e-05
5.60329e-06
-5.6351e-05
3.64401e-06
-5.80023e-05
1.65129e-06
-5.78786e-05
-1.23757e-07
-5.60191e-05
-1.85949e-06
-5.24424e-05
-3.57668e-06
-4.69357e-05
-5.50664e-06
-3.94879e-05
-7.44774e-06
-2.99258e-05
-9.56195e-06
-1.84723e-05
-1.14534e-05
-7.05865e-06
-1.14134e-05
-7.05853e-06
-4.72047e-05
7.13808e-06
-4.80247e-05
4.46394e-06
-4.826e-05
1.88662e-06
-4.78259e-05
-5.57891e-07
-4.66781e-05
-3.00715e-06
-4.46078e-05
-5.64697e-06
-4.15504e-05
-8.56389e-06
-3.717e-05
-1.18279e-05
-3.12777e-05
-1.54541e-05
-2.35855e-05
-1.91454e-05
-1.31393e-05
-2.18593e-05
-2.01978e-05
-3.69258e-05
7.79929e-06
-3.74101e-05
4.9481e-06
-3.76396e-05
2.11619e-06
-3.74445e-05
-7.52977e-07
-3.66736e-05
-3.77792e-06
-3.52625e-05
-7.05798e-06
-3.31074e-05
-1.07189e-05
-3.00777e-05
-1.48575e-05
-2.6087e-05
-1.94447e-05
-2.06571e-05
-2.45752e-05
-1.2784e-05
-2.97323e-05
-3.29817e-05
-2.74537e-05
7.89899e-06
-2.74721e-05
4.96645e-06
-2.7352e-05
1.99608e-06
-2.70184e-05
-1.08656e-06
-2.64071e-05
-4.38914e-06
-2.54503e-05
-8.01474e-06
-2.40594e-05
-1.21098e-05
-2.21075e-05
-1.68093e-05
-1.93871e-05
-2.2165e-05
-1.54097e-05
-2.85525e-05
-9.41493e-06
-3.57269e-05
-4.23966e-05
-1.75795e-05
7.7478e-06
-1.74666e-05
4.85356e-06
-1.73366e-05
1.86602e-06
-1.71373e-05
-1.28585e-06
-1.68276e-05
-4.69885e-06
-1.63599e-05
-8.48242e-06
-1.56759e-05
-1.27936e-05
-1.47142e-05
-1.7771e-05
-1.32738e-05
-2.36053e-05
-1.11378e-05
-3.06883e-05
-7.42932e-06
-3.94353e-05
-4.98258e-05
-8.10218e-06
7.42643e-06
-7.89707e-06
4.64843e-06
-7.76794e-06
1.7369e-06
-7.68363e-06
-1.37012e-06
-7.62319e-06
-4.75924e-06
-7.56664e-06
-8.53886e-06
-7.5097e-06
-1.28504e-05
-7.41632e-06
-1.78642e-05
-7.17242e-06
-2.3849e-05
-6.59707e-06
-3.12635e-05
-4.86916e-06
-4.1163e-05
-5.46949e-05
1.14312e-06
6.93634e-06
1.45256e-06
4.33903e-06
1.60833e-06
1.58121e-06
1.6233e-06
-1.38501e-06
1.49561e-06
-4.63141e-06
1.21082e-06
-8.25396e-06
7.40422e-07
-1.23799e-05
6.6042e-08
-1.71897e-05
-7.89066e-07
-2.29938e-05
-1.70675e-06
-3.03456e-05
-2.2268e-06
-4.06427e-05
-5.69216e-05
1.03039e-05
6.25121e-06
1.0754e-05
3.88904e-06
1.09877e-05
1.34754e-06
1.10046e-05
-1.40177e-06
1.07837e-05
-4.41037e-06
1.02812e-05
-7.75125e-06
9.42241e-06
-1.15209e-05
8.11415e-06
-1.58813e-05
6.2616e-06
-2.1141e-05
3.84425e-06
-2.79282e-05
1.24232e-06
-3.80406e-05
-5.56791e-05
1.96322e-05
5.37294e-06
2.02386e-05
3.28271e-06
2.05898e-05
9.96508e-07
2.06767e-05
-1.48853e-06
2.04644e-05
-4.19791e-06
1.98849e-05
-7.17158e-06
1.88146e-05
-1.04505e-05
1.70757e-05
-1.41422e-05
1.44224e-05
-1.84876e-05
1.05977e-05
-2.41033e-05
5.69588e-06
-3.31385e-05
-4.99832e-05
2.94524e-05
4.3861e-06
3.01682e-05
2.56696e-06
3.0632e-05
5.32859e-07
3.08306e-05
-1.687e-06
3.07182e-05
-4.08539e-06
3.02087e-05
-6.66186e-06
2.9136e-05
-9.37769e-06
2.72459e-05
-1.2252e-05
2.41277e-05
-1.53692e-05
1.92762e-05
-1.92517e-05
1.18788e-05
-2.5741e-05
-3.81042e-05
4.00651e-05
3.46633e-06
4.07744e-05
1.85781e-06
4.12951e-05
1.22953e-08
4.16119e-05
-2.0037e-06
4.16705e-05
-4.14378e-06
4.13721e-05
-6.36331e-06
4.05243e-05
-8.5298e-06
3.8831e-05
-1.05586e-05
3.57422e-05
-1.22804e-05
3.05225e-05
-1.40319e-05
2.06619e-05
-1.58802e-05
-1.74423e-05
5.15975e-05
2.82187e-06
5.21634e-05
1.29205e-06
5.26735e-05
-4.97707e-07
5.31047e-05
-2.43475e-06
5.33897e-05
-4.42876e-06
5.34203e-05
-6.39374e-06
5.30022e-05
-8.11167e-06
5.18677e-05
-9.42396e-06
4.94929e-05
-9.90545e-06
4.49407e-05
-9.47973e-06
3.45781e-05
-5.51756e-06
1.7136e-05
5.16342e-06
-5.16327e-06
8.75665e-06
-3.59403e-06
1.14663e-05
-2.70956e-06
1.29105e-05
-1.44421e-06
1.29231e-05
-1.26982e-08
1.08663e-05
2.05941e-06
6.12229e-06
4.74371e-06
-1.3217e-06
7.44629e-06
-1.50363e-05
1.37141e-05
-2.88838e-05
1.38478e-05
-3.91122e-05
1.02282e-05
7.9873e-06
-4.70997e-05
1.56328e-06
-6.72635e-06
3.79588e-06
-5.827e-06
3.82728e-06
-2.74078e-06
1.83186e-06
5.51347e-07
-2.71634e-06
4.53583e-06
-1.11506e-05
1.04944e-05
-2.29467e-05
1.654e-05
-3.39432e-05
1.84431e-05
-3.87831e-05
1.85541e-05
-4.10695e-05
1.61341e-05
-4.35942e-05
1.27528e-05
1.00636e-05
-4.56707e-05
1.13573e-06
-7.86184e-06
6.39958e-07
-5.33133e-06
-1.89719e-06
-2.03553e-07
-7.55265e-06
6.20695e-06
-1.65352e-05
1.35185e-05
-2.53423e-05
1.93018e-05
-3.04233e-05
2.16211e-05
-3.3172e-05
2.11919e-05
-3.41998e-05
1.95818e-05
-3.47456e-05
1.66799e-05
-3.55901e-05
1.35972e-05
1.07401e-05
-3.62668e-05
-1.89537e-06
-5.96621e-06
-5.12504e-06
-2.1016e-06
-1.01285e-05
4.80014e-06
-1.65794e-05
1.2658e-05
-2.22583e-05
1.91976e-05
-2.55171e-05
2.25608e-05
-2.67909e-05
2.2895e-05
-2.71513e-05
2.15524e-05
-2.71039e-05
1.95344e-05
-2.71175e-05
1.66933e-05
-2.72548e-05
1.37344e-05
1.08415e-05
-2.73563e-05
-3.74894e-06
-2.21697e-06
-8.71886e-06
2.86888e-06
-1.37279e-05
9.80926e-06
-1.78576e-05
1.6788e-05
-2.0162e-05
2.15023e-05
-2.06739e-05
2.30728e-05
-2.03175e-05
2.25389e-05
-1.96789e-05
2.09137e-05
-1.88982e-05
1.87537e-05
-1.83393e-05
1.61342e-05
-1.79812e-05
1.33763e-05
1.05928e-05
-1.77327e-05
-4.84978e-06
2.63458e-06
-9.59785e-06
7.61712e-06
-1.32336e-05
1.34457e-05
-1.51297e-05
1.86846e-05
-1.52504e-05
2.16234e-05
-1.43211e-05
2.2144e-05
-1.30224e-05
2.12403e-05
-1.17095e-05
1.96011e-05
-1.05151e-05
1.75592e-05
-9.58616e-06
1.52054e-05
-8.90889e-06
1.26989e-05
1.0109e-05
-8.42512e-06
-5.03723e-06
7.67249e-06
-8.97895e-06
1.15598e-05
-1.10851e-05
1.55522e-05
-1.11422e-05
1.87423e-05
-9.74376e-06
2.02256e-05
-7.77129e-06
2.0172e-05
-5.74037e-06
1.92098e-05
-3.88292e-06
1.77439e-05
-2.28955e-06
1.59661e-05
-1.02085e-06
1.39367e-05
-5.63859e-08
1.17345e-05
9.40075e-06
6.51875e-07
-4.94442e-06
1.26178e-05
-7.81988e-06
1.44354e-05
-8.33072e-06
1.60636e-05
-6.83376e-06
1.72457e-05
-4.2507e-06
1.76429e-05
-1.38949e-06
1.73111e-05
1.33323e-06
1.64874e-05
3.73845e-06
1.53389e-05
5.76556e-06
1.39391e-05
7.3966e-06
1.23058e-05
8.66414e-06
1.0467e-05
8.44679e-06
9.61812e-06
-4.3826e-06
1.70007e-05
-6.05276e-06
1.61061e-05
-4.85512e-06
1.4866e-05
-1.96429e-06
1.43551e-05
1.66656e-06
1.40123e-05
5.33922e-06
1.36386e-05
8.70292e-06
1.31239e-05
1.16194e-05
1.24225e-05
1.40553e-05
1.15034e-05
1.60223e-05
1.03389e-05
1.75691e-05
8.92017e-06
7.26209e-06
1.87539e-05
-3.97545e-06
2.09767e-05
-2.95589e-06
1.50865e-05
7.19979e-07
1.11904e-05
5.09367e-06
9.98147e-06
9.6208e-06
9.48532e-06
1.38626e-05
9.39697e-06
1.76029e-05
9.3838e-06
2.07771e-05
9.24842e-06
2.33965e-05
8.88411e-06
2.55057e-05
8.22975e-06
2.71736e-05
7.25232e-06
5.96961e-06
2.84661e-05
4.72813e-07
2.05041e-05
5.98724e-06
9.57238e-06
1.18875e-05
5.29001e-06
1.72666e-05
4.60249e-06
2.20024e-05
4.74968e-06
2.60679e-05
5.33159e-06
2.94984e-05
5.9535e-06
3.23426e-05
6.40433e-06
3.46609e-05
6.56586e-06
3.65172e-05
6.37354e-06
3.79914e-05
5.77822e-06
4.81455e-06
3.91465e-05
2.01754e-05
3.28979e-07
2.8387e-05
1.36076e-06
3.34616e-05
2.1562e-07
3.73784e-05
6.8575e-07
4.04234e-05
1.70474e-06
4.29287e-05
2.82634e-06
4.50325e-05
3.84977e-06
4.67783e-05
4.65862e-06
4.81991e-05
5.14517e-06
4.93285e-05
5.24415e-06
5.02324e-05
4.87439e-06
5.09547e-05
4.0923e-06
-5.27045e-05
5.60468e-06
-5.63504e-05
3.64572e-06
-5.80023e-05
1.65198e-06
-5.78794e-05
-1.22986e-07
-5.60201e-05
-1.85927e-06
-5.24438e-05
-3.5764e-06
-4.6937e-05
-5.50673e-06
-3.94891e-05
-7.44783e-06
-2.99268e-05
-9.5623e-06
-1.8473e-05
-1.14538e-05
-7.05894e-06
-1.14139e-05
-7.05889e-06
-4.72061e-05
7.14015e-06
-4.8026e-05
4.4655e-06
-4.82616e-05
1.88757e-06
-4.78274e-05
-5.57263e-07
-4.66797e-05
-3.00685e-06
-4.46092e-05
-5.64691e-06
-4.15518e-05
-8.56409e-06
-3.71713e-05
-1.18283e-05
-3.12788e-05
-1.54547e-05
-2.35863e-05
-1.91462e-05
-1.31399e-05
-2.18602e-05
-2.01987e-05
-3.69278e-05
7.80105e-06
-3.74118e-05
4.94941e-06
-3.76413e-05
2.11704e-06
-3.74461e-05
-7.5252e-07
-3.66751e-05
-3.77782e-06
-3.52638e-05
-7.05818e-06
-3.31085e-05
-1.07193e-05
-3.00787e-05
-1.48581e-05
-2.60878e-05
-1.94456e-05
-2.06577e-05
-2.45763e-05
-1.27843e-05
-2.97335e-05
-3.2983e-05
-2.74558e-05
7.90039e-06
-2.74739e-05
4.96742e-06
-2.73535e-05
1.99659e-06
-2.70197e-05
-1.08641e-06
-2.64082e-05
-4.38931e-06
-2.54512e-05
-8.01517e-06
-2.40601e-05
-1.21104e-05
-2.21081e-05
-1.68101e-05
-1.93876e-05
-2.21661e-05
-1.54102e-05
-2.85537e-05
-9.41522e-06
-3.57283e-05
-4.23982e-05
-1.75812e-05
7.74878e-06
-1.7468e-05
4.85414e-06
-1.73377e-05
1.86623e-06
-1.71382e-05
-1.28596e-06
-1.68283e-05
-4.69923e-06
-1.63604e-05
-8.48302e-06
-1.56765e-05
-1.27944e-05
-1.47146e-05
-1.77719e-05
-1.32742e-05
-2.36065e-05
-1.11381e-05
-3.06897e-05
-7.42956e-06
-3.94369e-05
-4.98278e-05
-8.10345e-06
7.42701e-06
-7.89803e-06
4.64868e-06
-7.76867e-06
1.73683e-06
-7.68417e-06
-1.37046e-06
-7.62357e-06
-4.75981e-06
-7.56694e-06
-8.53964e-06
-7.50991e-06
-1.28514e-05
-7.41651e-06
-1.78653e-05
-7.17259e-06
-2.38503e-05
-6.59727e-06
-3.1265e-05
-4.86932e-06
-4.11647e-05
-5.4697e-05
1.14233e-06
6.93657e-06
1.45204e-06
4.33898e-06
1.60801e-06
1.58089e-06
1.62315e-06
-1.38555e-06
1.49556e-06
-4.63216e-06
1.21088e-06
-8.25487e-06
7.40497e-07
-1.23809e-05
6.61377e-08
-1.71909e-05
-7.89007e-07
-2.29951e-05
-1.70678e-06
-3.03472e-05
-2.22689e-06
-4.06445e-05
-5.69239e-05
1.03036e-05
6.25113e-06
1.07539e-05
3.88873e-06
1.09878e-05
1.34702e-06
1.10049e-05
-1.40249e-06
1.07841e-05
-4.41125e-06
1.02816e-05
-7.75228e-06
9.42285e-06
-1.15221e-05
8.11456e-06
-1.58825e-05
6.26191e-06
-2.11424e-05
3.84449e-06
-2.79296e-05
1.24238e-06
-3.80424e-05
-5.56814e-05
1.96325e-05
5.37262e-06
2.02391e-05
3.2822e-06
2.05904e-05
9.95823e-07
2.06774e-05
-1.48939e-06
2.04652e-05
-4.1989e-06
1.98857e-05
-7.1727e-06
1.88154e-05
-1.04517e-05
1.70765e-05
-1.41434e-05
1.44231e-05
-1.84889e-05
1.05982e-05
-2.41047e-05
5.69611e-06
-3.31401e-05
-4.99853e-05
2.94532e-05
4.38558e-06
3.01692e-05
2.5663e-06
3.06331e-05
5.32038e-07
3.08318e-05
-1.68794e-06
3.07195e-05
-4.08646e-06
3.02099e-05
-6.66302e-06
2.91372e-05
-9.3789e-06
2.72471e-05
-1.22532e-05
2.41287e-05
-1.53704e-05
1.9277e-05
-1.92529e-05
1.18792e-05
-2.57424e-05
-3.81059e-05
4.00665e-05
3.46571e-06
4.07758e-05
1.85706e-06
4.12966e-05
1.13968e-08
4.16135e-05
-2.00472e-06
4.16721e-05
-4.14492e-06
4.13737e-05
-6.3645e-06
4.05259e-05
-8.53102e-06
3.88325e-05
-1.05597e-05
3.57436e-05
-1.22814e-05
3.05237e-05
-1.40329e-05
2.06627e-05
-1.58812e-05
-1.74432e-05
5.15993e-05
2.82122e-06
5.21652e-05
1.29124e-06
5.26754e-05
-4.98642e-07
5.31065e-05
-2.43583e-06
5.33917e-05
-4.42993e-06
5.34222e-05
-6.39497e-06
5.30041e-05
-8.11287e-06
5.18695e-05
-9.42506e-06
4.94945e-05
-9.90639e-06
4.49422e-05
-9.4804e-06
3.45791e-05
-5.51814e-06
1.71361e-05
5.16272e-06
-5.16215e-06
8.75498e-06
-3.5927e-06
1.14637e-05
-2.70816e-06
1.29072e-05
-1.44298e-06
1.29179e-05
-1.01065e-08
1.08569e-05
2.06447e-06
6.11147e-06
4.74584e-06
-1.34131e-06
7.45566e-06
-1.50585e-05
1.37168e-05
-2.8897e-05
1.38387e-05
-3.91205e-05
1.02231e-05
7.9826e-06
-4.71035e-05
1.56149e-06
-6.72314e-06
3.79108e-06
-5.82255e-06
3.81976e-06
-2.7363e-06
1.82132e-06
5.56129e-07
-2.73107e-06
4.5432e-06
-1.117e-05
1.05045e-05
-2.29665e-05
1.65428e-05
-3.39504e-05
1.84399e-05
-3.87816e-05
1.85481e-05
-4.10683e-05
1.61254e-05
-4.35922e-05
1.27468e-05
1.00585e-05
-4.56683e-05
1.13291e-06
-7.85601e-06
6.33322e-07
-5.32306e-06
-1.90832e-06
-1.94498e-07
-7.57015e-06
6.21827e-06
-1.65551e-05
1.35285e-05
-2.53532e-05
1.93029e-05
-3.04255e-05
2.16153e-05
-3.31698e-05
2.11844e-05
-3.41954e-05
1.95737e-05
-3.47418e-05
1.66716e-05
-3.5586e-05
1.35909e-05
1.07349e-05
-3.62626e-05
-1.89872e-06
-5.95726e-06
-5.13363e-06
-2.08817e-06
-1.0142e-05
4.81404e-06
-1.65922e-05
1.26687e-05
-2.22636e-05
1.92002e-05
-2.55157e-05
2.25554e-05
-2.67868e-05
2.28866e-05
-2.71461e-05
2.1544e-05
-2.70986e-05
1.95261e-05
-2.71126e-05
1.66857e-05
-2.72501e-05
1.37283e-05
1.08365e-05
-2.73518e-05
-3.75198e-06
-2.2051e-06
-8.72442e-06
2.88447e-06
-1.37325e-05
9.82236e-06
-1.78577e-05
1.67943e-05
-2.01576e-05
2.15004e-05
-2.06677e-05
2.30659e-05
-2.03115e-05
2.25307e-05
-1.96729e-05
2.09056e-05
-1.88929e-05
1.87462e-05
-1.83347e-05
1.61275e-05
-1.79771e-05
1.33707e-05
1.05883e-05
-1.7729e-05
-4.85232e-06
2.64769e-06
-9.5981e-06
7.63072e-06
-1.32306e-05
1.34554e-05
-1.51236e-05
1.86879e-05
-1.5243e-05
2.16204e-05
-1.43143e-05
2.21377e-05
-1.30164e-05
2.12332e-05
-1.17045e-05
1.95941e-05
-1.05108e-05
1.75528e-05
-9.58269e-06
1.51995e-05
-8.90585e-06
1.2694e-05
1.0105e-05
-8.42249e-06
-5.03552e-06
7.6842e-06
-8.97485e-06
1.15706e-05
-1.10783e-05
1.55596e-05
-1.11341e-05
1.87443e-05
-9.7363e-06
2.02231e-05
-7.7651e-06
2.01671e-05
-5.73559e-06
1.92041e-05
-3.87915e-06
1.77381e-05
-2.28665e-06
1.59606e-05
-1.01854e-06
1.39317e-05
-5.45209e-08
1.17301e-05
9.39709e-06
6.53464e-07
-4.94149e-06
1.26261e-05
-7.81373e-06
1.44434e-05
-8.32279e-06
1.6069e-05
-6.82573e-06
1.72477e-05
-4.24392e-06
1.76417e-05
-1.38426e-06
1.73078e-05
1.33706e-06
1.64831e-05
3.74119e-06
1.53343e-05
5.7675e-06
1.39345e-05
7.39798e-06
1.23014e-05
8.66515e-06
1.04631e-05
8.44347e-06
9.61889e-06
-4.37852e-06
1.70052e-05
-6.0462e-06
1.61113e-05
-4.84742e-06
1.48704e-05
-1.95684e-06
1.43573e-05
1.67282e-06
1.40122e-05
5.34401e-06
1.36368e-05
8.70636e-06
1.3121e-05
1.16218e-05
1.2419e-05
1.40569e-05
1.14997e-05
1.60233e-05
1.03352e-05
1.75697e-05
8.91677e-06
7.25912e-06
1.87542e-05
-3.97205e-06
2.09773e-05
-2.95086e-06
1.50902e-05
7.26148e-07
1.11934e-05
5.09996e-06
9.98346e-06
9.62637e-06
9.48584e-06
1.38671e-05
9.39611e-06
1.76063e-05
9.38192e-06
2.07796e-05
9.24586e-06
2.33982e-05
8.8812e-06
2.55068e-05
8.22674e-06
2.71743e-05
7.24946e-06
5.96705e-06
2.84664e-05
4.73987e-07
2.05036e-05
5.99035e-06
9.57387e-06
1.18919e-05
5.2919e-06
1.72714e-05
4.60398e-06
2.2007e-05
4.75025e-06
2.6072e-05
5.33115e-06
2.95017e-05
5.9522e-06
3.23452e-05
6.40244e-06
3.46629e-05
6.56362e-06
3.65186e-05
6.37116e-06
3.79923e-05
5.77592e-06
4.81246e-06
3.9147e-05
2.01759e-05
3.27591e-07
2.83887e-05
1.36096e-06
3.34643e-05
2.16257e-07
3.73819e-05
6.86374e-07
4.04272e-05
1.70489e-06
4.29324e-05
2.82588e-06
4.50359e-05
3.84871e-06
4.67812e-05
4.65714e-06
4.82014e-05
5.14343e-06
4.93303e-05
5.24233e-06
5.02337e-05
4.87264e-06
5.09554e-05
4.09075e-06
-5.27058e-05
5.60194e-06
-5.63488e-05
3.64279e-06
-5.79996e-05
1.65066e-06
-5.78756e-05
-1.24209e-07
-5.6016e-05
-1.85965e-06
-5.24394e-05
-3.57673e-06
-4.69329e-05
-5.50648e-06
-3.94854e-05
-7.44747e-06
-2.99239e-05
-9.56153e-06
-1.8471e-05
-1.14529e-05
-7.05809e-06
-1.14128e-05
-7.05805e-06
-4.72024e-05
7.13597e-06
-4.80222e-05
4.46239e-06
-4.82572e-05
1.8856e-06
-4.7823e-05
-5.58517e-07
-4.66752e-05
-3.00745e-06
-4.4605e-05
-5.64696e-06
-4.15479e-05
-8.56361e-06
-3.71679e-05
-1.18274e-05
-3.1276e-05
-1.54534e-05
-2.35843e-05
-1.91445e-05
-1.31388e-05
-2.18583e-05
-2.01968e-05
-3.69236e-05
7.79691e-06
-3.74077e-05
4.94631e-06
-3.76371e-05
2.11495e-06
-3.74419e-05
-7.53735e-07
-3.66712e-05
-3.77822e-06
-3.52602e-05
-7.05788e-06
-3.31054e-05
-1.07184e-05
-3.0076e-05
-1.48567e-05
-2.60856e-05
-1.94437e-05
-2.06561e-05
-2.45739e-05
-1.27834e-05
-2.97309e-05
-3.29802e-05
-2.74515e-05
7.89649e-06
-2.74698e-05
4.96458e-06
-2.73497e-05
1.99478e-06
-2.70162e-05
-1.08732e-06
-2.6405e-05
-4.38941e-06
-2.54483e-05
-8.01455e-06
-2.40576e-05
-1.21091e-05
-2.2106e-05
-1.68083e-05
-1.93859e-05
-2.21637e-05
-1.54089e-05
-2.85509e-05
-9.41451e-06
-3.57251e-05
-4.23947e-05
-1.75778e-05
7.74526e-06
-1.74649e-05
4.85163e-06
-1.73348e-05
1.86467e-06
-1.71355e-05
-1.28665e-06
-1.68258e-05
-4.69913e-06
-1.63582e-05
-8.48218e-06
-1.56744e-05
-1.27928e-05
-1.47129e-05
-1.77698e-05
-1.32729e-05
-2.36037e-05
-1.11372e-05
-3.06865e-05
-7.42905e-06
-3.94332e-05
-4.98237e-05
-8.10108e-06
7.42386e-06
-7.89588e-06
4.64642e-06
-7.76666e-06
1.73545e-06
-7.68228e-06
-1.37102e-06
-7.6218e-06
-4.75959e-06
-7.56527e-06
-8.53866e-06
-7.5084e-06
-1.28497e-05
-7.41518e-06
-1.78629e-05
-7.17155e-06
-2.38473e-05
-6.5965e-06
-3.12615e-05
-4.86889e-06
-4.11607e-05
-5.46926e-05
1.14371e-06
6.93368e-06
1.45329e-06
4.33689e-06
1.60919e-06
1.5796e-06
1.62428e-06
-1.38606e-06
1.49668e-06
-4.6319e-06
1.21195e-06
-8.25386e-06
7.41528e-07
-1.23791e-05
6.70256e-08
-1.71883e-05
-7.88285e-07
-2.29919e-05
-1.70627e-06
-3.03433e-05
-2.22658e-06
-4.06403e-05
-5.69191e-05
1.03042e-05
6.24846e-06
1.07544e-05
3.88676e-06
1.09883e-05
1.34578e-06
1.10053e-05
-1.40299e-06
1.07846e-05
-4.41101e-06
1.02821e-05
-7.75127e-06
9.42338e-06
-1.15203e-05
8.11506e-06
-1.58799e-05
6.26232e-06
-2.1139e-05
3.84472e-06
-2.79257e-05
1.24254e-06
-3.8038e-05
-5.56765e-05
1.96326e-05
5.37017e-06
2.02391e-05
3.28037e-06
2.05904e-05
9.94649e-07
2.06774e-05
-1.48986e-06
2.04652e-05
-4.19867e-06
1.98857e-05
-7.17171e-06
1.88155e-05
-1.04499e-05
1.70765e-05
-1.41408e-05
1.44231e-05
-1.84855e-05
1.05982e-05
-2.41006e-05
5.69608e-06
-3.31357e-05
-4.99803e-05
2.94533e-05
4.38345e-06
3.0169e-05
2.56467e-06
3.06328e-05
5.31019e-07
3.08314e-05
-1.68833e-06
3.0719e-05
-4.08617e-06
3.02095e-05
-6.66202e-06
2.91369e-05
-9.37712e-06
2.72467e-05
-1.22506e-05
2.41284e-05
-1.5367e-05
1.92767e-05
-1.92489e-05
1.1879e-05
-2.57379e-05
-3.81012e-05
4.00666e-05
3.46395e-06
4.07756e-05
1.85574e-06
4.12962e-05
1.06159e-08
4.16129e-05
-2.00492e-06
4.16714e-05
-4.14448e-06
4.13729e-05
-6.36339e-06
4.05251e-05
-8.52917e-06
3.88317e-05
-1.05571e-05
3.57428e-05
-1.22781e-05
3.0523e-05
-1.40289e-05
2.06621e-05
-1.5877e-05
-1.7439e-05
5.15996e-05
2.81992e-06
5.21651e-05
1.29032e-06
5.26749e-05
-4.99102e-07
5.31058e-05
-2.43573e-06
5.33907e-05
-4.42925e-06
5.3421e-05
-6.39362e-06
5.30028e-05
-8.11083e-06
5.18681e-05
-9.42225e-06
4.94931e-05
-9.90297e-06
4.49408e-05
-9.47672e-06
3.45782e-05
-5.51421e-06
1.71393e-05
5.16346e-06
-5.16328e-06
8.75664e-06
-3.59398e-06
1.14662e-05
-2.70945e-06
1.29103e-05
-1.44406e-06
1.29225e-05
-1.23196e-08
1.08648e-05
2.06031e-06
6.12008e-06
4.74444e-06
-1.32694e-06
7.44933e-06
-1.50434e-05
1.37161e-05
-2.88897e-05
1.38465e-05
-3.91173e-05
1.02274e-05
7.98654e-06
-4.7104e-05
1.56324e-06
-6.72631e-06
3.79563e-06
-5.82675e-06
3.82665e-06
-2.74028e-06
1.83059e-06
5.52164e-07
-2.7188e-06
4.53741e-06
-1.11548e-05
1.0497e-05
-2.2952e-05
1.65419e-05
-3.39464e-05
1.84441e-05
-3.87846e-05
1.85543e-05
-4.10714e-05
1.61332e-05
-4.35962e-05
1.27522e-05
1.00629e-05
-4.56727e-05
1.13565e-06
-7.86172e-06
6.39619e-07
-5.33082e-06
-1.89808e-06
-2.02501e-07
-7.55463e-06
6.20885e-06
-1.6538e-05
1.3521e-05
-2.53446e-05
1.93039e-05
-3.0425e-05
2.16223e-05
-3.31732e-05
2.11925e-05
-3.42008e-05
1.95818e-05
-3.47469e-05
1.66793e-05
-3.55914e-05
1.35966e-05
1.07394e-05
-3.62682e-05
-1.89541e-06
-5.96603e-06
-5.12537e-06
-2.10081e-06
-1.01294e-05
4.80174e-06
-1.65807e-05
1.26603e-05
-2.22595e-05
1.91999e-05
-2.5518e-05
2.25626e-05
-2.67917e-05
2.28961e-05
-2.7152e-05
2.15529e-05
-2.71047e-05
1.95344e-05
-2.71184e-05
1.66929e-05
-2.72558e-05
1.37339e-05
1.08409e-05
-2.73574e-05
-3.74897e-06
-2.21677e-06
-8.71901e-06
2.86983e-06
-1.37283e-05
9.81104e-06
-1.7858e-05
1.67904e-05
-2.01624e-05
2.15046e-05
-2.06742e-05
2.30745e-05
-2.03178e-05
2.254e-05
-1.96793e-05
2.09142e-05
-1.88987e-05
1.87538e-05
-1.83399e-05
1.6134e-05
-1.7982e-05
1.33759e-05
1.05922e-05
-1.77335e-05
-4.84979e-06
2.6349e-06
-9.59792e-06
7.61813e-06
-1.32337e-05
1.34476e-05
-1.51298e-05
1.8687e-05
-1.52504e-05
2.16256e-05
-1.4321e-05
2.21457e-05
-1.30224e-05
2.12414e-05
-1.17096e-05
1.96018e-05
-1.05154e-05
1.75595e-05
-9.58655e-06
1.52053e-05
-8.90936e-06
1.26986e-05
1.01085e-05
-8.42563e-06
-5.03721e-06
7.67282e-06
-8.97893e-06
1.15608e-05
-1.10851e-05
1.5554e-05
-1.1142e-05
1.87445e-05
-9.74344e-06
2.02278e-05
-7.77095e-06
2.01737e-05
-5.74011e-06
1.9211e-05
-3.88276e-06
1.77446e-05
-2.2895e-06
1.59665e-05
-1.02089e-06
1.39367e-05
-5.64919e-08
1.17342e-05
9.40025e-06
6.51737e-07
-4.94437e-06
1.26181e-05
-7.81983e-06
1.44365e-05
-8.33053e-06
1.60653e-05
-6.83332e-06
1.72477e-05
-4.25008e-06
1.76449e-05
-1.38882e-06
1.73127e-05
1.33384e-06
1.64887e-05
3.73897e-06
1.53397e-05
5.76597e-06
1.39396e-05
7.39693e-06
1.23059e-05
8.66442e-06
1.04668e-05
8.44632e-06
9.61837e-06
-4.3827e-06
1.70012e-05
-6.05273e-06
1.6107e-05
-4.85481e-06
1.48674e-05
-1.96369e-06
1.43568e-05
1.66734e-06
1.40141e-05
5.34007e-06
1.36402e-05
8.70373e-06
1.31252e-05
1.16202e-05
1.24234e-05
1.4056e-05
1.15039e-05
1.60229e-05
1.0339e-05
1.75697e-05
8.92e-06
7.26163e-06
1.87545e-05
-3.97549e-06
2.09772e-05
-2.95584e-06
1.50874e-05
7.20226e-07
1.11916e-05
5.09413e-06
9.98296e-06
9.62142e-06
9.48694e-06
1.38633e-05
9.39848e-06
1.76036e-05
9.38507e-06
2.07778e-05
9.24935e-06
2.33972e-05
8.88466e-06
2.55064e-05
8.22991e-06
2.71743e-05
7.25213e-06
5.96912e-06
2.84668e-05
4.72785e-07
2.05047e-05
5.98715e-06
9.5733e-06
1.18874e-05
5.29126e-06
1.72665e-05
4.60395e-06
2.20024e-05
4.75123e-06
2.60679e-05
5.33305e-06
2.94984e-05
5.95471e-06
3.23427e-05
6.40519e-06
3.46612e-05
6.56632e-06
3.65176e-05
6.3736e-06
3.79918e-05
5.77792e-06
4.81395e-06
3.91471e-05
2.01746e-05
3.30267e-07
2.83858e-05
1.36208e-06
3.34603e-05
2.17063e-07
3.73769e-05
6.87308e-07
4.0422e-05
1.70625e-06
4.29274e-05
2.82768e-06
4.50314e-05
3.85081e-06
4.67774e-05
4.65927e-06
4.81984e-05
5.1454e-06
4.93281e-05
5.24395e-06
5.02322e-05
4.87382e-06
5.09548e-05
4.09143e-06
-5.27083e-05
5.60414e-06
-5.63534e-05
3.645e-06
-5.8005e-05
1.65156e-06
-5.78816e-05
-1.23457e-07
-5.60219e-05
-1.85959e-06
-5.24452e-05
-3.57677e-06
-4.69382e-05
-5.50697e-06
-3.94901e-05
-7.44807e-06
-2.99277e-05
-9.56245e-06
-1.84737e-05
-1.14539e-05
-7.05952e-06
-1.14141e-05
-7.05947e-06
-4.72079e-05
7.13933e-06
-4.80278e-05
4.46475e-06
-4.82631e-05
1.88693e-06
-4.78288e-05
-5.57865e-07
-4.66809e-05
-3.00742e-06
-4.46102e-05
-5.64744e-06
-4.15526e-05
-8.56456e-06
-3.71719e-05
-1.18287e-05
-3.12792e-05
-1.54551e-05
-2.35865e-05
-1.91465e-05
-1.314e-05
-2.18605e-05
-2.01995e-05
-3.69292e-05
7.8003e-06
-3.74132e-05
4.94864e-06
-3.76425e-05
2.11628e-06
-3.74472e-05
-7.53282e-07
-3.6676e-05
-3.77856e-06
-3.52646e-05
-7.05889e-06
-3.31091e-05
-1.072e-05
-3.00791e-05
-1.48587e-05
-2.6088e-05
-1.94461e-05
-2.06577e-05
-2.45767e-05
-1.27842e-05
-2.97339e-05
-3.29836e-05
-2.74569e-05
7.89964e-06
-2.74749e-05
4.96661e-06
-2.73545e-05
1.99576e-06
-2.70206e-05
-1.08726e-06
-2.6409e-05
-4.39018e-06
-2.54518e-05
-8.01603e-06
-2.40606e-05
-1.21112e-05
-2.21084e-05
-1.68109e-05
-1.93878e-05
-2.21667e-05
-1.54102e-05
-2.85542e-05
-9.41523e-06
-3.57288e-05
-4.23988e-05
-1.7582e-05
7.74806e-06
-1.74688e-05
4.85332e-06
-1.73385e-05
1.86534e-06
-1.71389e-05
-1.28691e-06
-1.68288e-05
-4.70022e-06
-1.63609e-05
-8.48401e-06
-1.56767e-05
-1.27954e-05
-1.47147e-05
-1.77728e-05
-1.32742e-05
-2.36073e-05
-1.11379e-05
-3.06903e-05
-7.42937e-06
-3.94373e-05
-4.98281e-05
-8.10397e-06
7.4263e-06
-7.89852e-06
4.64784e-06
-7.7691e-06
1.73588e-06
-7.68452e-06
-1.37149e-06
-7.62382e-06
-4.76089e-06
-7.56708e-06
-8.54074e-06
-7.50995e-06
-1.28524e-05
-7.41644e-06
-1.78663e-05
-7.17244e-06
-2.38512e-05
-6.59705e-06
-3.12657e-05
-4.86915e-06
-4.11651e-05
-5.46972e-05
1.14218e-06
6.93586e-06
1.45192e-06
4.33812e-06
1.60794e-06
1.5799e-06
1.62315e-06
-1.38664e-06
1.49564e-06
-4.63331e-06
1.21103e-06
-8.25604e-06
7.40739e-07
-1.23821e-05
6.64481e-08
-1.71919e-05
-7.88647e-07
-2.2996e-05
-1.70642e-06
-3.03478e-05
-2.22656e-06
-4.06448e-05
-5.69237e-05
1.03038e-05
6.25043e-06
1.07541e-05
3.88785e-06
1.09881e-05
1.34599e-06
1.10052e-05
-1.40363e-06
1.07845e-05
-4.41246e-06
1.0282e-05
-7.75351e-06
9.42336e-06
-1.15233e-05
8.11511e-06
-1.58836e-05
6.26245e-06
-2.11433e-05
3.84498e-06
-2.79302e-05
1.24275e-06
-3.80425e-05
-5.56808e-05
1.9633e-05
5.37192e-06
2.02397e-05
3.2813e-06
2.0591e-05
9.94769e-07
2.0678e-05
-1.49057e-06
2.04659e-05
-4.20014e-06
1.98864e-05
-7.17396e-06
1.88161e-05
-1.04529e-05
1.70772e-05
-1.41445e-05
1.44238e-05
-1.84897e-05
1.05988e-05
-2.41051e-05
5.69658e-06
-3.31401e-05
-4.99842e-05
2.9454e-05
4.38485e-06
3.017e-05
2.56537e-06
3.06339e-05
5.30944e-07
3.08326e-05
-1.68916e-06
3.07204e-05
-4.08774e-06
3.02108e-05
-6.66429e-06
2.91382e-05
-9.38009e-06
2.7248e-05
-1.22542e-05
2.41295e-05
-1.53711e-05
1.92777e-05
-1.92532e-05
1.18797e-05
-2.57421e-05
-3.81043e-05
4.00671e-05
3.46487e-06
4.07766e-05
1.85603e-06
4.12975e-05
1.02147e-08
4.16145e-05
-2.006e-06
4.16731e-05
-4.14624e-06
4.13747e-05
-6.36578e-06
4.05269e-05
-8.53217e-06
3.88334e-05
-1.05606e-05
3.57444e-05
-1.2282e-05
3.05242e-05
-1.4033e-05
2.06631e-05
-1.58806e-05
-1.74412e-05
5.15996e-05
2.82014e-06
5.21657e-05
1.29001e-06
5.26761e-05
-4.99999e-07
5.31074e-05
-2.43724e-06
5.33926e-05
-4.43131e-06
5.34231e-05
-6.39623e-06
5.30049e-05
-8.11393e-06
5.18702e-05
-9.42582e-06
4.9495e-05
-9.90679e-06
4.49424e-05
-9.48036e-06
3.45792e-05
-5.51743e-06
1.71382e-05
6.55487e-05
4.15773e-06
-6.93778e-05
6.4852e-05
2.05762e-06
6.34844e-05
1.58322e-06
6.27453e-05
1.42495e-06
6.25364e-05
1.91378e-06
6.26399e-05
2.72314e-06
6.28767e-05
3.61315e-06
6.31232e-05
4.41243e-06
6.33139e-05
4.95476e-06
6.3429e-05
5.12937e-06
6.35165e-05
4.78737e-06
4.00099e-06
6.36084e-05
8.42239e-05
3.29597e-06
-8.33623e-05
8.3879e-05
2.40248e-06
8.31988e-05
2.26336e-06
8.23372e-05
2.28644e-06
8.15068e-05
2.74422e-06
8.07251e-05
3.50488e-06
7.99596e-05
4.37865e-06
7.9179e-05
5.19299e-06
7.83798e-05
5.75405e-06
7.75937e-05
5.91547e-06
7.69174e-05
5.46364e-06
4.48458e-06
7.64339e-05
9.72577e-05
2.31485e-06
-9.62765e-05
9.75642e-05
2.096e-06
9.75119e-05
2.31566e-06
9.71051e-05
2.69321e-06
9.64297e-05
3.41968e-06
9.55257e-05
4.40892e-06
9.44205e-05
5.48383e-06
9.31584e-05
6.45513e-06
9.18157e-05
7.09678e-06
9.05163e-05
7.21487e-06
8.94376e-05
6.54231e-06
5.12922e-06
8.8793e-05
0.000109095
-0.000108501
1.72045e-06
0.000109361
1.82999e-06
0.000109312
2.36521e-06
0.000108904
3.10053e-06
0.000108148
4.1762e-06
0.000107078
5.47822e-06
0.000105756
6.80641e-06
0.000104283
7.92832e-06
0.000102809
8.57e-06
0.000101556
8.46834e-06
0.000100777