/*--------------------------------*- C++ -*----------------------------------*\
| =========                 |                                                 |
| \\      /  F ield         | OpenFOAM: The Open Source CFD Toolbox           |
|  \\    /   O peration     | Version:  v1912                                 |
|   \\  /    A nd           | Website:  www.openfoam.com                      |
|    \\/     M anipulation  |                                                 |
\*---------------------------------------------------------------------------*/
FoamFile
{
    version     2.0;
    format      ascii;
    class       volVectorField;
    location    "400";
    object      U;
}
// * * * * * * * * * * * * * * * * * * * * * * * * * * * * * * * * * * * * * //

dimensions      [0 1 -1 0 0 0 0];


internalField   nonuniform List<vector> 
3072
(
(0.287766 2.21817 0)
(0.309373 1.93418 0)
(0.391904 1.76512 1.43062e-19)
(0.504435 1.65978 7.10729e-19)
(0.620423 1.58517 -1.19561e-18)
(0.751006 1.54596 7.64286e-19)
(0.896398 1.6695 3.6616e-19)
(1.30109 1.6937 9.40599e-19)
(2.26853 1.45193 -2.75833e-19)
(2.93494 1.79395 9.24329e-19)
(3.12979 2.11536 8.07227e-19)
(3.43651 2.24498 7.32673e-19)
(-0.376893 2.74396 -2.67494e-19)
(-0.215981 2.38019 -6.18616e-19)
(0.0419682 2.3459 5.38326e-19)
(0.320335 2.35495 0)
(0.651815 2.42718 1.12747e-18)
(1.1913 2.39623 -1.4018e-18)
(2.04956 2.54148 0)
(2.6849 2.777 0)
(2.98283 2.76344 0)
(3.09803 2.8371 8.07691e-19)
(3.13129 2.83992 -2.79572e-18)
(3.24242 2.82638 3.51175e-19)
(-0.345043 2.99778 1.77129e-19)
(-0.0946191 2.70833 0)
(0.333915 2.74431 0)
(0.855721 2.77466 -3.63301e-18)
(1.54328 2.88292 1.32492e-18)
(2.24462 3.01534 -2.05033e-18)
(2.71243 3.036 1.78552e-18)
(2.98292 3.00025 0)
(3.13578 2.87304 0)
(3.20639 2.78295 -1.02327e-18)
(3.2608 2.69717 -1.09296e-18)
(3.33752 2.6122 3.81636e-18)
(-0.292944 3.32117 -1.33168e-18)
(0.113028 3.12741 -2.23804e-18)
(0.698516 3.22935 1.9637e-18)
(1.36529 3.30221 -1.77057e-18)
(2.01205 3.36068 3.60903e-18)
(2.49979 3.32305 -3.61569e-18)
(2.78553 3.20383 -2.15944e-18)
(2.94831 3.07056 -6.6993e-18)
(3.05855 2.91846 -3.0172e-19)
(3.11734 2.80375 3.50162e-18)
(3.16889 2.69937 3.90698e-18)
(3.22765 2.5986 -3.11188e-18)
(-0.0750573 3.53209 0)
(0.385808 3.49252 1.23922e-18)
(0.997751 3.60044 -2.7728e-18)
(1.63307 3.63165 3.22738e-18)
(2.16572 3.5762 6.00809e-19)
(2.50936 3.43727 2.15737e-18)
(2.7124 3.2687 2.43273e-18)
(2.84111 3.10139 2.36221e-18)
(2.92884 2.93844 -4.91987e-18)
(2.99089 2.79646 4.16992e-18)
(3.04821 2.66939 -5.64395e-18)
(3.10695 2.55082 7.47905e-18)
(0.137298 3.71941 -4.64089e-18)
(0.627513 3.77661 1.75195e-18)
(1.1941 3.85462 5.05145e-18)
(1.74084 3.81819 0)
(2.1573 3.68599 -7.24921e-18)
(2.42245 3.50241 7.57657e-18)
(2.59232 3.30747 0)
(2.71052 3.11924 -5.67763e-18)
(2.7994 2.94202 4.83241e-18)
(2.86937 2.78337 0)
(2.93294 2.64088 2.77501e-19)
(2.99473 2.51014 4.40056e-18)
(0.345233 3.88478 0)
(0.815764 4.02913 -4.07621e-18)
(1.3064 4.05245 3.71832e-18)
(1.74927 3.95971 0)
(2.07844 3.78048 -4.37998e-18)
(2.30117 3.56726 7.0069e-19)
(2.45767 3.35056 6.1761e-18)
(2.57563 3.14413 5.6941e-18)
(2.66991 2.95232 -5.00978e-18)
(2.74859 2.77856 4.96815e-18)
(2.81948 2.6216 -4.30076e-18)
(2.8864 2.4785 -1.20642e-17)
(0.542019 4.06949 0)
(0.949676 4.27696 3.40902e-18)
(1.34582 4.23272 -4.9537e-18)
(1.69432 4.09616 4.93412e-18)
(1.96422 3.88238 0)
(2.16491 3.64291 -6.37009e-18)
(2.31833 3.40438 6.27559e-18)
(2.44113 3.17859 1.23385e-19)
(2.54315 2.96966 -1.04578e-17)
(2.63042 2.77963 -4.90493e-18)
(2.70832 2.6077 -2.74563e-19)
(2.7802 2.45161 8.83389e-18)
(0.696073 4.2412 0)
(1.03366 4.51408 -3.88288e-18)
(1.32644 4.39396 -5.43171e-18)
(1.59634 4.21479 -3.8808e-18)
(1.82461 3.97119 7.8502e-18)
(2.01284 3.70804 0)
(2.16819 3.44909 0)
(2.2985 3.20494 0)
(2.40955 2.97958 0)
(2.50571 2.7745 4.94301e-18)
(2.59069 2.58901 -4.97955e-18)
(2.66766 2.4211 4.76999e-18)
(0.822982 4.50466 0)
(1.02626 4.71655 2.70746e-18)
(1.22018 4.49183 -6.16907e-19)
(1.44017 4.25366 4.45996e-18)
(1.64386 3.98278 4.44343e-18)
(1.82692 3.7036 -7.13179e-18)
(1.98851 3.43415 0)
(2.12967 3.18184 -2.17725e-19)
(2.25265 2.9495 -1.77085e-17)
(2.35995 2.73782 0)
(2.45409 2.54601 1.10377e-17)
(2.53792 2.37218 -5.17172e-18)
(0.972969 4.5668 0)
(0.935461 4.68979 3.14173e-18)
(1.02306 4.37874 9.23473e-18)
(1.2073 4.08463 -7.88925e-18)
(1.40038 3.81188 -1.1058e-17)
(1.58863 3.54588 1.75112e-17)
(1.76344 3.29399 -1.99026e-19)
(1.92098 3.05867 -6.8813e-18)
(2.06036 2.84046 5.6287e-18)
(2.18268 2.63973 -1.1998e-17)
(2.28932 2.45607 -1.66472e-17)
(2.38304 2.28787 1.68513e-17)
(0.398924 4.18545 -1.8615e-18)
(0.564777 4.11273 -1.23159e-17)
(0.692646 3.81201 2.37324e-18)
(0.88806 3.56499 0)
(1.10184 3.37072 0)
(1.31102 3.17861 3.63151e-19)
(1.5053 2.98971 1.86389e-17)
(1.6817 2.80633 1.15145e-17)
(1.83898 2.62978 0)
(1.97794 2.46228 1.08613e-17)
(2.09874 2.30487 0)
(2.20427 2.15701 4.97225e-19)
(3.67864 2.27586 1.65274e-19)
(3.90975 2.21977 -3.65253e-19)
(4.05424 2.11534 -3.30077e-19)
(4.14565 1.97185 -5.77066e-19)
(4.15168 1.81379 -2.8895e-19)
(4.10842 1.62534 0)
(3.97521 1.43561 0)
(3.77441 1.23522 8.03469e-19)
(3.48764 1.03099 -9.43456e-19)
(3.10803 0.78999 0)
(2.68284 0.379584 0)
(2.54027 -0.217201 -6.49551e-20)
(3.33276 2.80688 1.66705e-18)
(3.43466 2.74991 0)
(3.53214 2.65871 -8.95144e-19)
(3.62744 2.53059 5.06235e-19)
(3.70582 2.36916 2.95675e-19)
(3.74499 2.20609 2.66523e-18)
(3.7386 2.04703 -4.34025e-18)
(3.68086 1.90098 6.77684e-19)
(3.56903 1.788 0)
(3.32634 1.68253 0)
(3.05072 1.54268 0)
(3.19069 1.02917 7.28219e-19)
(3.40775 2.52612 1.5588e-18)
(3.48464 2.43517 -4.26822e-18)
(3.55701 2.33824 1.18825e-18)
(3.61881 2.23771 2.87191e-18)
(3.66074 2.13837 -2.91296e-18)
(3.67746 2.04367 0)
(3.66335 1.96466 0)
(3.61949 1.91154 -2.35579e-19)
(3.55338 1.88728 1.0976e-18)
(3.41693 1.87767 0)
(3.19927 1.86651 0)
(3.41143 1.74583 -4.69398e-19)
(3.28385 2.50198 3.44782e-19)
(3.34212 2.40632 4.24276e-18)
(3.39878 2.31045 2.99086e-18)
(3.44998 2.21589 -2.97602e-18)
(3.49085 2.12739 0)
(3.5173 2.05091 1.73126e-18)
(3.52576 1.99406 0)
(3.51913 1.96672 2.51984e-18)
(3.49438 1.96949 -7.70209e-19)
(3.42673 2.02544 0)
(3.24906 2.10825 -5.513e-19)
(3.54702 2.15751 6.60558e-19)
(3.16493 2.43996 -3.04699e-18)
(3.22365 2.33488 0)
(3.28076 2.23512 0)
(3.3336 2.14253 0)
(3.3797 2.061 0)
(3.41766 1.99546 -3.13153e-18)
(3.44606 1.95446 -1.40584e-19)
(3.46432 1.945 -1.40201e-18)
(3.47924 1.97587 0)
(3.47549 2.06299 -1.2232e-18)
(3.3604 2.20505 4.91809e-19)
(3.77275 2.40219 -1.69126e-19)
(3.05521 2.38966 -2.42505e-19)
(3.1153 2.27793 -7.22697e-18)
(3.17416 2.17465 3.40279e-18)
(3.23069 2.08126 3.11726e-21)
(3.28409 2.0009 2.22989e-19)
(3.33419 1.93806 4.85136e-18)
(3.38193 1.89896 -1.54699e-19)
(3.4294 1.89083 -5.40379e-18)
(3.47878 1.92446 -2.16796e-18)
(3.53251 2.01682 1.0871e-18)
(3.47847 2.20431 -1.34026e-18)
(3.93771 2.5232 -5.42188e-19)
(2.95077 2.34751 1.1524e-17)
(3.01376 2.22728 3.7701e-18)
(3.07565 2.11744 0)
(3.13668 2.01901 0)
(3.19744 1.93437 2.1069e-19)
(3.2593 1.86723 -3.52112e-18)
(3.32468 1.82275 5.50497e-18)
(3.39724 1.80776 -1.29475e-19)
(3.48053 1.83317 1.85342e-18)
(3.58104 1.91847 0)
(3.60222 2.10511 -2.40904e-19)
(4.09719 2.50918 -7.97555e-20)
(2.84799 2.30946 -4.23682e-18)
(2.91339 2.17963 -3.89973e-18)
(2.97761 2.06149 4.18312e-18)
(3.04196 1.95544 -3.91164e-18)
(3.10817 1.86304 5.49257e-22)
(3.17887 1.78692 7.7333e-18)
(3.25808 1.73086 -3.54079e-18)
(3.35151 1.70069 1.99394e-18)
(3.46502 1.70659 0)
(3.61087 1.76936 1.1982e-18)
(3.70919 1.9415 6.10893e-19)
(4.20307 2.39071 -9.20767e-19)
(2.73872 2.26868 4.62622e-18)
(2.80611 2.12967 -4.48036e-18)
(2.87174 2.00301 -4.183e-18)
(2.93772 1.88834 -8.70491e-18)
(3.00669 1.78635 8.36222e-18)
(3.08225 1.69852 -8.00442e-18)
(3.1699 1.6268 0)
(3.27772 1.57525 -1.89327e-18)
(3.41478 1.55172 0)
(3.60042 1.57637 0)
(3.77885 1.71237 0)
(4.26115 2.1313 4.38909e-19)
(2.61346 2.21424 5.014e-18)
(2.68342 2.06952 -1.00737e-17)
(2.75015 1.93679 9.81645e-18)
(2.81625 1.81498 9.40906e-18)
(2.8849 1.70391 4.53596e-18)
(2.96064 1.60395 0)
(3.05017 1.51485 0)
(3.16345 1.43812 4.37816e-18)
(3.31341 1.37746 0)
(3.52956 1.34966 -1.22271e-18)
(3.77023 1.41084 7.96354e-19)
(4.24789 1.72021 -1.2745e-18)
(2.4652 2.13372 -1.10566e-17)
(2.53901 1.99035 1.02013e-17)
(2.607 1.85701 -9.96347e-18)
(2.67197 1.7321 -2.50097e-17)
(2.73727 1.61499 -2.47553e-19)
(2.80784 1.50511 1.34896e-19)
(2.89183 1.39993 -4.77286e-18)
(2.99944 1.29768 -4.35238e-18)
(3.14759 1.19579 0)
(3.37416 1.10555 3.67026e-18)
(3.64812 1.03833 8.98443e-19)
(4.11769 1.02277 -1.79014e-18)
(2.29415 2.01871 -4.93447e-19)
(2.37217 1.88579 0)
(2.44059 1.75925 0)
(2.50209 1.63714 4.78248e-18)
(2.56055 1.5189 1.45828e-17)
(2.62059 1.4036 -4.75927e-18)
(2.69155 1.28707 -2.195e-19)
(2.7816 1.16439 -2.44113e-18)
(2.9098 1.02533 -2.26563e-18)
(3.10396 0.871241 -2.27755e-18)
(3.38751 0.646619 0)
(3.71813 -0.0356337 2.34094e-18)
(2.21861 -0.287193 -6.82358e-24)
(1.93438 -0.309093 0)
(1.76517 -0.391712 -1.43035e-19)
(1.65977 -0.504303 0)
(1.58519 -0.620322 -6.04101e-19)
(1.54589 -0.750947 7.6438e-19)
(1.6693 -0.89621 0)
(1.69389 -1.30053 6.68505e-19)
(1.45168 -2.26774 -2.43358e-19)
(1.79327 -2.93498 -1.12966e-19)
(2.11512 -3.12983 -8.10996e-19)
(2.24461 -3.43652 -7.32884e-19)
(2.74416 0.377151 -3.38885e-19)
(2.38012 0.216134 -1.90749e-19)
(2.34586 -0.0418576 6.25527e-19)
(2.35483 -0.320263 0)
(2.42701 -0.651642 -1.12631e-18)
(2.39618 -1.19078 6.14189e-19)
(2.54107 -2.04905 0)
(2.77687 -2.68485 9.10632e-19)
(2.76331 -2.98299 -2.57907e-18)
(2.83697 -3.09828 2.02012e-18)
(2.83985 -3.13146 1.50543e-18)
(2.82631 -3.24254 -3.7718e-18)
(2.99788 0.345376 -1.77008e-19)
(2.70833 0.0948901 0)
(2.74431 -0.333696 -1.72032e-18)
(2.77459 -0.855408 0)
(2.88271 -1.54283 0)
(3.01521 -2.24437 -8.20812e-19)
(3.03591 -2.71244 4.06438e-18)
(3.00028 -2.98307 -2.86972e-18)
(2.87305 -3.13597 9.95498e-19)
(2.78292 -3.20663 0)
(2.69714 -3.26098 2.67366e-18)
(2.61217 -3.33769 -1.62123e-18)
(3.32122 0.293218 8.61369e-19)
(3.12742 -0.11267 1.30604e-18)
(3.22935 -0.698137 1.43875e-18)
(3.30214 -1.36493 2.68055e-18)
(3.36065 -2.01185 -1.66477e-18)
(3.32311 -2.49984 -1.22482e-18)
(3.20389 -2.7857 0)
(3.07064 -2.94852 0)
(2.9185 -3.05877 2.20055e-18)
(2.80376 -3.11756 0)
(2.69938 -3.16907 4.8339e-19)
(2.5986 -3.2278 1.35556e-18)
(3.53219 0.0753041 1.3484e-18)
(3.49255 -0.385445 -9.94152e-19)
(3.60048 -0.997429 -2.77377e-18)
(3.63174 -1.63289 0)
(3.57635 -2.16573 0)
(3.43743 -2.5095 3.02192e-18)
(3.26882 -2.71259 0)
(3.1015 -2.84131 -5.65161e-18)
(2.93851 -2.92903 -2.35603e-18)
(2.7965 -2.99106 4.17108e-18)
(2.66942 -3.04835 -5.64544e-18)
(2.55083 -3.10706 3.5504e-18)
(3.71952 -0.13707 -2.61028e-18)
(3.77667 -0.627232 -1.50373e-18)
(3.85475 -1.19389 2.16325e-18)
(3.81837 -1.74077 3.81759e-19)
(3.68619 -2.15736 3.65396e-18)
(3.50259 -2.42259 -7.26232e-18)
(3.30761 -2.59247 6.59271e-18)
(3.11934 -2.71068 6.59145e-19)
(2.9421 -2.79954 0)
(2.78342 -2.8695 0)
(2.64091 -2.93305 8.56249e-18)
(2.51016 -2.99482 5.64644e-20)
(3.88487 -0.345095 -3.36434e-20)
(4.02922 -0.815595 -2.25375e-18)
(4.05261 -1.30629 0)
(3.95991 -1.74925 -4.4123e-18)
(3.78068 -2.0785 4.66278e-18)
(3.56743 -2.30127 1.11638e-17)
(3.35069 -2.45779 6.82138e-18)
(3.14423 -2.57575 8.62188e-19)
(2.95239 -2.67001 -1.05599e-17)
(2.7786 -2.74868 4.62204e-18)
(2.62163 -2.81956 4.94185e-18)
(2.47852 -2.88645 2.65219e-19)
(4.06956 -0.541931 2.18807e-19)
(4.27706 -0.949589 3.40967e-18)
(4.23287 -1.34577 0)
(4.09633 -1.69432 -4.93514e-18)
(3.88254 -1.96427 -3.58895e-18)
(3.64305 -2.16498 6.36451e-19)
(3.40448 -2.31841 -1.18627e-17)
(3.17866 -2.44121 4.2193e-19)
(2.96972 -2.54322 -2.71306e-19)
(2.77967 -2.63048 5.15617e-18)
(2.60773 -2.70836 -4.16285e-18)
(2.45163 -2.78023 2.20635e-19)
(4.24127 -0.696064 -3.48654e-18)
(4.51417 -1.03362 1.55511e-18)
(4.39408 -1.32642 -7.90671e-18)
(4.21492 -1.59635 3.88106e-18)
(3.97131 -1.82464 0)
(3.70814 -2.01288 0)
(3.44916 -2.16824 6.5137e-18)
(3.20499 -2.29854 1.18874e-17)
(2.97962 -2.40959 -5.42924e-18)
(2.77452 -2.50573 -4.94365e-18)
(2.58902 -2.59071 -4.73984e-18)
(2.42111 -2.66766 0)
(4.5047 -0.823019 7.31141e-20)
(4.71659 -1.02625 4.11683e-18)
(4.49188 -1.22017 9.33752e-18)
(4.25373 -1.44017 0)
(3.98285 -1.64387 7.75705e-18)
(3.70365 -1.82694 0)
(3.43419 -1.98853 3.37859e-19)
(3.18187 -2.12969 -5.73106e-18)
(2.94951 -2.25266 6.20513e-18)
(2.73782 -2.35995 0)
(2.54601 -2.45408 0)
(2.37217 -2.5379 -1.06743e-17)
(4.56678 -0.973021 -6.59892e-18)
(4.68978 -0.935459 3.14169e-18)
(4.37873 -1.02305 5.25982e-19)
(4.08463 -1.20728 -8.70137e-18)
(3.81188 -1.40037 -3.41988e-18)
(3.54588 -1.58862 -3.50102e-18)
(3.29398 -1.76342 -6.82037e-18)
(3.05866 -1.92097 -1.9252e-17)
(2.84044 -2.06034 -5.62867e-18)
(2.63971 -2.18265 -1.19981e-17)
(2.45605 -2.28928 1.16408e-17)
(2.28785 -2.383 1.06967e-17)
(4.18543 -0.39895 3.56302e-18)
(4.11267 -0.564768 -1.41188e-18)
(3.81195 -0.692633 3.55865e-19)
(3.56494 -0.888041 7.39806e-18)
(3.37067 -1.10182 0)
(3.17856 -1.311 -6.69905e-18)
(2.98967 -1.50528 6.00155e-18)
(2.80628 -1.68167 5.34548e-18)
(2.62973 -1.83894 -1.7412e-17)
(2.46223 -1.9779 1.08608e-17)
(2.30483 -2.09869 -1.06373e-17)
(2.15697 -2.20421 0)
(2.27581 -3.67863 -4.25913e-19)
(2.2196 -3.90976 1.03386e-18)
(2.11533 -4.05429 -9.57293e-19)
(1.97178 -4.14568 -2.59527e-19)
(1.81381 -4.15174 -1.10215e-19)
(1.62532 -4.10846 7.97317e-20)
(1.43565 -3.97527 -1.27081e-19)
(1.23523 -3.77445 -3.20073e-19)
(1.03103 -3.48769 -9.43431e-19)
(0.790017 -3.10805 0)
(0.379624 -2.68287 0)
(-0.217163 -2.54029 -6.49493e-20)
(2.80682 -3.3329 -6.05941e-20)
(2.74987 -3.43476 2.16251e-18)
(2.65871 -3.53221 -8.95117e-19)
(2.5306 -3.6275 0)
(2.36918 -3.70588 1.73589e-18)
(2.20612 -3.74504 0)
(2.04706 -3.73866 1.29968e-18)
(1.90101 -3.68091 2.24044e-18)
(1.78804 -3.56907 -1.90622e-18)
(1.68258 -3.32637 0)
(1.54273 -3.05075 0)
(1.02922 -3.19071 -2.96659e-20)
(2.52609 -3.40789 1.12139e-18)
(2.43514 -3.48475 -1.05743e-18)
(2.33823 -3.5571 1.18846e-18)
(2.23771 -3.61889 0)
(2.13838 -3.6608 -1.28083e-18)
(2.0437 -3.67751 3.22883e-18)
(1.9647 -3.66339 -4.66747e-18)
(1.91158 -3.61952 -5.2021e-18)
(1.88733 -3.55341 3.08525e-18)
(1.87774 -3.41695 0)
(1.86658 -3.19927 6.12025e-19)
(1.74591 -3.41145 1.52291e-19)
(2.50198 -3.28398 1.30232e-18)
(2.40633 -3.34222 -2.95572e-18)
(2.31046 -3.39885 2.99143e-18)
(2.21591 -3.45004 -2.97656e-18)
(2.12742 -3.49089 0)
(2.05094 -3.51733 1.73149e-18)
(1.9941 -3.52578 1.17872e-18)
(1.96677 -3.51915 6.94151e-19)
(1.96954 -3.49439 -1.56369e-18)
(2.02551 -3.42675 0)
(2.10832 -3.24907 -3.55043e-19)
(2.15759 -3.54703 5.92226e-19)
(2.43998 -3.16502 3.41368e-18)
(2.33489 -3.22372 -1.76707e-18)
(2.23514 -3.28081 0)
(2.14255 -3.33364 0)
(2.06103 -3.37972 1.70265e-18)
(1.9955 -3.41767 -1.43175e-18)
(1.9545 -3.44607 -2.55445e-19)
(1.94505 -3.46433 0)
(1.97592 -3.47924 -8.32338e-19)
(2.06305 -3.47549 1.22317e-18)
(2.20513 -3.3604 -1.07683e-18)
(2.40229 -3.77277 -2.72514e-19)
(2.38967 -3.05528 -7.28411e-18)
(2.27794 -3.11535 3.48556e-18)
(2.17467 -3.17419 7.03456e-18)
(2.08128 -3.23071 3.11786e-21)
(2.00093 -3.2841 -8.37802e-18)
(1.9381 -3.33419 -3.55379e-18)
(1.899 -3.38192 -2.44314e-19)
(1.89088 -3.4294 0)
(1.92451 -3.47877 0)
(2.01689 -3.5325 -1.0871e-18)
(2.20439 -3.47847 -7.80037e-19)
(2.52329 -3.93772 2.37849e-19)
(2.34753 -2.95081 3.93817e-18)
(2.22729 -3.01378 -7.76815e-18)
(2.11746 -3.07566 -3.45e-18)
(2.01903 -3.13667 -1.99797e-19)
(1.9344 -3.19743 3.3201e-18)
(1.86726 -3.25928 3.28409e-18)
(1.82279 -3.32466 1.85606e-18)
(1.8078 -3.39722 1.81011e-18)
(1.83322 -3.48052 -2.01045e-18)
(1.91854 -3.58103 0)
(2.10519 -3.60222 1.25401e-18)
(2.50928 -4.0972 -3.61155e-19)
(2.30947 -2.84801 0)
(2.17964 -2.9134 3.90042e-18)
(2.06151 -2.9776 0)
(1.95545 -3.04194 -1.99567e-19)
(1.86306 -3.10815 5.50376e-22)
(1.78695 -3.17884 7.73436e-18)
(1.73089 -3.25805 -1.67285e-18)
(1.70073 -3.35147 -3.89097e-18)
(1.70664 -3.465 -2.13364e-18)
(1.76941 -3.61085 1.19825e-18)
(1.94158 -3.70918 -2.33582e-18)
(2.3908 -4.20307 1.17568e-18)
(2.26869 -2.73872 4.6269e-18)
(2.12967 -2.80609 -4.48102e-18)
(2.00302 -2.87171 -4.53585e-18)
(1.88835 -2.93768 4.43249e-18)
(1.78636 -3.00665 4.18502e-18)
(1.69855 -3.08221 -1.2262e-17)
(1.62683 -3.16985 0)
(1.57529 -3.27767 1.89343e-18)
(1.55176 -3.41474 1.95089e-18)
(1.57642 -3.60039 0)
(1.71244 -3.77883 2.85111e-18)
(2.13138 -4.26114 -2.08608e-18)
(2.21423 -2.61343 0)
(2.06951 -2.68338 -1.00748e-17)
(1.93679 -2.7501 -5.22966e-18)
(1.81499 -2.8162 -9.12856e-18)
(1.70392 -2.88484 4.53643e-18)
(1.60396 -2.96057 4.27918e-18)
(1.51487 -3.05011 0)
(1.43815 -3.16339 0)
(1.37749 -3.31336 0)
(1.3497 -3.52952 0)
(1.41089 -3.7702 -7.98475e-19)
(1.72028 -4.24787 -1.03983e-19)
(2.1337 -2.46514 5.38805e-18)
(1.99033 -2.53895 4.94226e-18)
(1.857 -2.60693 2.0506e-17)
(1.7321 -2.6719 5.26316e-18)
(1.615 -2.73719 1.97706e-17)
(1.50512 -2.80777 -4.76125e-18)
(1.39995 -2.89176 -4.77315e-18)
(1.2977 -2.99937 0)
(1.19581 -3.14753 -4.53527e-18)
(1.10558 -3.3741 -2.441e-18)
(1.03837 -3.64808 -1.84142e-18)
(1.02281 -4.11766 -1.11217e-25)
(2.01868 -2.29409 0)
(1.88577 -2.3721 0)
(1.75923 -2.44052 -2.04453e-17)
(1.63713 -2.50201 -1.48792e-17)
(1.5189 -2.56046 -4.70374e-18)
(1.40361 -2.62051 0)
(1.28708 -2.69147 4.73152e-18)
(1.1644 -2.78152 0)
(1.02534 -2.90973 -1.98003e-19)
(0.871257 -3.1039 2.27755e-18)
(0.646638 -3.38746 6.64293e-19)
(-0.0356249 -3.71809 4.63486e-18)
(-0.287272 -2.21861 1.16419e-19)
(-0.30918 -1.9344 1.86483e-19)
(-0.391822 -1.76523 -1.69126e-19)
(-0.504418 -1.65991 5.44906e-21)
(-0.620483 -1.58526 0)
(-0.75108 -1.54611 4.95466e-20)
(-0.896629 -1.66976 0)
(-1.30159 -1.69355 5.00314e-19)
(-2.2691 -1.45216 1.16839e-18)
(-2.9349 -1.79438 1.27183e-20)
(-3.12974 -2.11551 6.09377e-19)
(-3.43644 -2.24516 8.1958e-19)
(0.377036 -2.74418 4.47938e-19)
(0.215979 -2.38022 -6.18743e-19)
(-0.0420129 -2.34609 5.82348e-19)
(-0.320435 -2.3552 -9.02461e-21)
(-0.652062 -2.42743 -1.12795e-18)
(-1.19187 -2.39632 -2.08938e-19)
(-2.05004 -2.5419 -1.04604e-18)
(-2.68493 -2.77721 -1.51244e-18)
(-2.98268 -2.76363 2.40507e-18)
(-3.09779 -2.83727 -6.06744e-19)
(-3.13112 -2.84 7.56354e-19)
(-3.24229 -2.82644 4.57045e-19)
(0.345139 -2.99792 -3.54251e-19)
(0.0945333 -2.70849 0)
(-0.33412 -2.74456 0)
(-0.856147 -2.77495 -1.54087e-18)
(-1.54387 -2.88336 0)
(-2.24487 -3.01569 -1.22923e-18)
(-2.71236 -3.03627 6.85009e-19)
(-2.9827 -3.00038 2.50014e-18)
(-3.13554 -2.87316 -1.24452e-18)
(-3.20614 -2.78306 -1.82141e-18)
(-3.26059 -2.69726 -3.76722e-18)
(-3.33734 -2.61227 3.81679e-18)
(0.292764 -3.32119 -1.72396e-18)
(-0.113354 -3.1276 -1.30742e-18)
(-0.698958 -3.22961 2.53656e-18)
(-1.36573 -3.30255 9.09176e-19)
(-2.01224 -3.36098 0)
(-2.49964 -3.32321 -4.45278e-18)
(-2.78526 -3.20396 3.31251e-18)
(-2.94803 -3.07066 0)
(-3.05827 -2.91856 3.27945e-18)
(-3.11709 -2.80384 -5.02594e-18)
(-3.16869 -2.69945 3.42345e-18)
(-3.22747 -2.59865 4.68003e-19)
(0.0747858 -3.53206 2.04952e-18)
(-0.386211 -3.49264 3.03541e-18)
(-0.998132 -3.60059 9.11769e-19)
(-1.63327 -3.63179 0)
(-2.16564 -3.57627 -2.73215e-18)
(-2.50908 -3.43733 4.62981e-18)
(-2.71209 -3.26877 0)
(-2.84081 -3.10147 -3.08183e-18)
(-2.92858 -2.93852 -2.81685e-18)
(-2.99067 -2.79655 4.16934e-18)
(-3.04802 -2.66946 0)
(-3.10679 -2.55088 -3.21481e-18)
(-0.137683 -3.71927 2.03027e-18)
(-0.627908 -3.77664 7.0967e-19)
(-1.19437 -3.85463 -2.16218e-18)
(-1.7409 -3.81816 -8.91008e-18)
(-2.15713 -3.68596 -3.0545e-19)
(-2.42219 -3.50242 7.57645e-18)
(-2.59204 -3.30752 0)
(-2.71027 -3.11931 8.57641e-18)
(-2.79918 -2.94211 -5.00576e-18)
(-2.86918 -2.78346 4.38982e-18)
(-2.93278 -2.64096 2.77445e-19)
(-2.9946 -2.51021 -5.64316e-20)
(-0.345602 -3.88461 -1.85073e-18)
(-0.816089 -4.02909 -1.45234e-18)
(-1.30659 -4.05234 0)
(-1.74927 -3.95959 9.53358e-18)
(-2.07829 -3.78041 -1.31553e-17)
(-2.30095 -3.56725 -2.17113e-19)
(-2.45746 -3.3506 -1.29922e-17)
(-2.57543 -3.1442 5.30518e-19)
(-2.66973 -2.95241 -5.00882e-18)
(-2.74844 -2.77865 -4.96731e-18)
(-2.81935 -2.62169 4.94e-18)
(-2.88629 -2.47858 -4.08869e-18)
(-0.54233 -4.06932 -1.66971e-19)
(-0.949935 -4.27686 -1.83985e-18)
(-1.34596 -4.23255 0)
(-1.69432 -4.09599 4.93272e-18)
(-1.96412 -3.88228 3.37138e-18)
(-2.16475 -3.64288 2.99557e-18)
(-2.31816 -3.4044 -5.11374e-19)
(-2.44097 -3.17865 -1.2334e-19)
(-2.543 -2.96975 -5.60794e-18)
(-2.6303 -2.77972 -5.98103e-19)
(-2.70821 -2.60779 2.336e-19)
(-2.7801 -2.4517 0)
(-0.696319 -4.24104 2.16958e-18)
(-1.03384 -4.51394 0)
(-1.32655 -4.39376 0)
(-1.59636 -4.21459 -3.88032e-18)
(-1.82455 -3.97105 3.43827e-18)
(-2.01272 -3.70797 -7.08353e-18)
(-2.16806 -3.44907 0)
(-2.29836 -3.20496 5.81846e-18)
(-2.40942 -2.97963 -2.45268e-19)
(-2.50558 -2.77457 4.94226e-18)
(-2.59059 -2.58908 -5.17222e-18)
(-2.66756 -2.42117 9.93918e-18)
(-0.823082 -4.50449 4.44301e-18)
(-1.02639 -4.71643 -1.40953e-18)
(-1.22026 -4.49163 -4.97728e-18)
(-1.44019 -4.25346 -8.56596e-18)
(-1.64382 -3.98261 0)
(-1.82683 -3.70347 6.45549e-18)
(-1.98839 -3.43408 -1.30702e-17)
(-2.12954 -3.18181 5.8021e-18)
(-2.25252 -2.9495 6.20378e-18)
(-2.35983 -2.73784 0)
(-2.45397 -2.54605 -5.90319e-18)
(-2.53782 -2.37223 -9.94671e-18)
(-0.973021 -4.56672 -6.54512e-18)
(-0.935543 -4.68968 1.42909e-18)
(-1.02311 -4.37856 4.35426e-18)
(-1.2073 -4.08443 3.68975e-18)
(-1.40034 -3.81169 -4.99511e-20)
(-1.58854 -3.54572 -1.08302e-17)
(-1.76332 -3.29386 1.29458e-17)
(-1.92085 -3.05858 2.53113e-17)
(-2.06022 -2.84041 -1.77054e-17)
(-2.18254 -2.6397 -1.19961e-17)
(-2.28919 -2.45607 1.09753e-17)
(-2.38293 -2.28788 0)
(-0.398897 -4.18538 5.50345e-18)
(-0.564779 -4.11263 1.8667e-18)
(-0.692653 -3.81186 2.01722e-18)
(-0.888044 -3.56481 7.95538e-18)
(-1.10179 -3.37052 0)
(-1.31093 -3.17842 6.33562e-18)
(-1.50519 -2.98955 -1.26357e-17)
(-1.68157 -2.80619 -5.59451e-18)
(-1.83883 -2.62967 -5.73012e-18)
(-1.9778 -2.4622 1.08601e-17)
(-2.09861 -2.30482 5.68266e-18)
(-2.20415 -2.15698 1.63155e-17)
(-3.67856 -2.27588 1.24367e-19)
(-3.90965 -2.21981 5.92283e-19)
(-4.05412 -2.11532 2.8171e-19)
(-4.14552 -1.97184 -6.56008e-19)
(-4.15156 -1.81375 1.7836e-19)
(-4.1083 -1.62531 0)
(-3.9751 -1.43557 -5.12214e-19)
(-3.77432 -1.23518 3.88035e-19)
(-3.48755 -1.03095 0)
(-3.10797 -0.789958 1.15535e-19)
(-2.68281 -0.379557 0)
(-2.54024 0.217234 -2.99112e-19)
(-3.33263 -2.80691 -4.25917e-18)
(-3.43454 -2.74991 3.03116e-18)
(-3.53203 -2.65868 2.29842e-18)
(-3.62734 -2.53054 -9.6474e-19)
(-3.70572 -2.36911 0)
(-3.74489 -2.20604 0)
(-3.73851 -2.04697 1.48526e-18)
(-3.68078 -1.90092 -1.60275e-18)
(-3.56896 -1.78795 0)
(-3.3263 -1.68248 6.08585e-19)
(-3.0507 -1.54262 -3.91626e-20)
(-3.19067 -1.02913 -1.10255e-18)
(-3.40759 -2.52616 1.61379e-18)
(-3.4845 -2.43519 -2.77717e-18)
(-3.55688 -2.33825 0)
(-3.61869 -2.2377 -2.90222e-18)
(-3.66064 -2.13835 -2.98542e-18)
(-3.67738 -2.04364 6.38547e-18)
(-3.66328 -1.96462 -5.69882e-18)
(-3.61943 -1.91148 0)
(-3.55333 -1.88722 0)
(-3.4169 -1.8776 0)
(-3.19925 -1.86644 -5.35207e-19)
(-3.41141 -1.74576 1.6483e-19)
(-3.2837 -2.50202 -1.30196e-18)
(-3.34199 -2.40635 -3.90485e-19)
(-3.39867 -2.31046 0)
(-3.44989 -2.21588 -3.68672e-19)
(-3.49077 -2.12737 0)
(-3.51723 -2.05086 0)
(-3.52571 -1.994 1.33897e-18)
(-3.51908 -1.96666 -1.60408e-18)
(-3.49434 -1.96941 1.72267e-18)
(-3.42671 -2.02536 0)
(-3.24905 -2.10816 -5.51353e-19)
(-3.54699 -2.15742 -6.60661e-19)
(-3.1648 -2.44001 7.11091e-18)
(-3.22354 -2.33491 -1.76653e-18)
(-3.28066 -2.23514 3.17527e-18)
(-3.33352 -2.14252 1.42941e-18)
(-3.37963 -2.06098 -4.84074e-18)
(-3.4176 -1.99543 0)
(-3.44602 -1.9544 -1.64417e-18)
(-3.46428 -1.94493 0)
(-3.47921 -1.97579 0)
(-3.47547 -2.0629 1.22327e-18)
(-3.36041 -2.20496 3.1434e-20)
(-3.77273 -2.4021 7.41755e-19)
(-3.0551 -2.38971 -3.39616e-18)
(-3.11521 -2.27797 -2.57282e-19)
(-3.17408 -2.17467 0)
(-3.23063 -2.08126 0)
(-3.28404 -2.00089 -5.30275e-18)
(-3.33415 -1.93803 3.33258e-18)
(-3.38189 -1.89891 3.39836e-18)
(-3.42937 -1.89076 1.77217e-18)
(-3.47876 -1.92437 -4.205e-18)
(-3.53249 -2.01673 -1.08713e-18)
(-3.47848 -2.20421 0)
(-3.93769 -2.5231 8.46621e-19)
(-2.95068 -2.34758 -8.08647e-18)
(-3.01369 -2.22733 3.32475e-18)
(-3.07559 -2.11748 3.67732e-18)
(-3.13662 -2.01902 2.01425e-19)
(-3.1974 -1.93437 -4.13436e-19)
(-3.25926 -1.86721 -3.71616e-18)
(-3.32465 -1.82271 -5.40259e-18)
(-3.39721 -1.80769 -1.9412e-18)
(-3.48052 -1.83309 1.85328e-18)
(-3.58103 -1.91838 0)
(-3.60223 -2.10502 2.12034e-18)
(-4.09717 -2.50907 -5.41026e-19)
(-2.84791 -2.30953 8.28129e-18)
(-2.91333 -2.17969 -4.50337e-18)
(-2.97756 -2.06153 -4.18265e-18)
(-3.04191 -1.95546 -7.62293e-18)
(-3.10813 -1.86304 7.47499e-18)
(-3.17884 -1.7869 -1.93717e-19)
(-3.25805 -1.73082 1.12169e-17)
(-3.35148 -1.70063 1.78442e-18)
(-3.46501 -1.70651 2.13329e-18)
(-3.61086 -1.76926 0)
(-3.7092 -1.94141 -1.45292e-18)
(-4.20306 -2.3906 -6.9496e-19)
(-2.73864 -2.26875 0)
(-2.80604 -2.12973 4.29194e-18)
(-2.87168 -2.00306 4.1825e-18)
(-2.93768 -1.88837 -4.27253e-18)
(-3.00665 -1.78636 -1.63491e-19)
(-3.08222 -1.69851 -4.25554e-18)
(-3.16987 -1.62677 -3.82918e-18)
(-3.2777 -1.5752 0)
(-3.41477 -1.55164 -1.95055e-18)
(-3.60041 -1.57627 -1.21085e-18)
(-3.77885 -1.71227 4.66489e-18)
(-4.26114 -2.1312 -9.99081e-19)
(-2.61337 -2.21429 0)
(-2.68334 -2.06956 0)
(-2.75008 -1.93682 0)
(-2.8162 -1.81501 -1.42292e-17)
(-2.88486 -1.70392 9.04617e-18)
(-2.9606 -1.60394 8.71356e-18)
(-3.05015 -1.51482 0)
(-3.16343 -1.43807 -4.37749e-18)
(-3.3134 -1.37738 0)
(-3.52955 -1.34956 -2.49751e-18)
(-3.77022 -1.41074 -7.98422e-19)
(-4.24788 -1.7201 -1.27459e-18)
(-2.46509 -2.13373 0)
(-2.53892 -1.99037 0)
(-2.60692 -1.85703 1.05396e-17)
(-2.67191 -1.73212 1.47291e-17)
(-2.73722 -1.615 4.06756e-19)
(-2.80781 -1.50511 4.89504e-18)
(-2.89181 -1.3999 -2.33876e-18)
(-2.99943 -1.29763 6.58982e-18)
(-3.14759 -1.19571 4.53429e-18)
(-3.37415 -1.10545 2.27838e-18)
(-3.64811 -1.03823 -1.84126e-18)
(-4.11769 -1.02266 -1.96119e-18)
(-2.29404 -2.0187 0)
(-2.37207 -1.88579 0)
(-2.44051 -1.75925 -9.9826e-18)
(-2.50203 -1.63714 5.25142e-18)
(-2.5605 -1.5189 -4.70327e-18)
(-2.62056 -1.40359 -4.75879e-18)
(-2.69153 -1.28704 4.95047e-18)
(-2.7816 -1.16433 0)
(-2.90981 -1.02525 -4.45262e-18)
(-3.10397 -0.87115 -2.36902e-18)
(-3.38751 -0.646514 2.27994e-18)
(-3.71813 0.0357271 -4.65452e-18)
(-2.21861 0.28719 1.16371e-19)
(-1.93437 0.309094 0)
(-1.76517 0.391714 0)
(-1.65978 0.504309 5.7503e-19)
(-1.58519 0.620332 -6.14959e-19)
(-1.54593 0.750949 0)
(-1.66939 0.896283 0)
(-1.69381 1.30079 4.99843e-19)
(-1.45178 2.26814 1.28161e-18)
(-1.79361 2.93507 1.08809e-18)
(-2.11528 3.12988 -2.01606e-19)
(-2.24484 3.43661 7.39012e-19)
(-2.74416 -0.37715 -6.21173e-19)
(-2.38012 -0.216125 0)
(-2.34587 0.0418757 0)
(-2.35487 0.320298 -9.70198e-19)
(-2.42705 0.651729 2.29249e-18)
(-2.39621 1.19101 -2.48596e-18)
(-2.54125 2.0493 8.86821e-19)
(-2.77695 2.68496 8.10822e-19)
(-2.7634 2.98302 -3.28322e-19)
(-2.83707 3.09827 8.07793e-19)
(-2.83993 3.13146 0)
(-2.8264 3.24257 -1.71404e-18)
(-2.99788 -0.34537 3.54001e-19)
(-2.70834 -0.094867 0)
(-2.74432 0.333747 0)
(-2.77461 0.855518 -9.07714e-19)
(-2.88278 1.543 6.74364e-19)
(-3.01526 2.24451 -1.554e-18)
(-3.03597 2.71255 0)
(-3.0003 2.98313 -3.29309e-18)
(-2.87309 3.136 3.94769e-18)
(-2.78298 3.20662 -1.02311e-18)
(-2.69721 3.26099 -2.65146e-18)
(-2.61224 3.33769 3.81605e-18)
(-3.32122 -0.293207 -8.61368e-19)
(-3.12742 0.11271 1.30608e-18)
(-3.22935 0.698217 0)
(-3.30215 1.36505 9.09489e-19)
(-3.36067 2.01199 -6.44154e-19)
(-3.32311 2.49994 1.22479e-18)
(-3.2039 2.78576 0)
(-3.07065 2.94855 -2.41667e-18)
(-2.91852 3.05878 -5.47921e-18)
(-2.8038 3.11756 3.50202e-18)
(-2.69943 3.16907 3.42418e-18)
(-2.59865 3.2278 -6.6927e-18)
(-3.53219 -0.0752945 1.02364e-18)
(-3.49254 0.385489 -1.23928e-18)
(-3.60048 0.997513 2.77348e-18)
(-3.63173 1.633 0)
(-3.57633 2.16584 -5.77943e-18)
(-3.43741 2.50958 5.49188e-18)
(-3.26881 2.71264 3.27438e-18)
(-3.1015 2.84133 2.36246e-18)
(-2.93852 2.92904 0)
(-2.79653 2.99107 0)
(-2.66945 3.04836 0)
(-2.55088 3.10707 -7.1456e-19)
(-3.71952 0.137083 5.22049e-18)
(-3.77667 0.627276 0)
(-3.85473 1.19397 -2.16306e-18)
(-3.81835 1.74088 4.64473e-18)
(-3.68617 2.15746 3.61412e-18)
(-3.50256 2.42266 -7.22603e-18)
(-3.30759 2.59252 3.37119e-18)
(-3.11933 2.7107 -1.17624e-17)
(-2.9421 2.79955 -1.74335e-19)
(-2.78344 2.8695 -4.25406e-19)
(-2.64094 2.93305 2.77559e-19)
(-2.51019 2.99482 1.14668e-17)
(-3.88487 0.345106 -6.6278e-18)
(-4.02921 0.815637 4.07739e-18)
(-4.0526 1.30637 -6.20024e-18)
(-3.95988 1.74935 -4.41204e-18)
(-3.78064 2.07859 -8.20008e-18)
(-3.56739 2.30133 -4.35661e-18)
(-3.35066 2.45783 -6.43551e-18)
(-3.14421 2.57577 1.06812e-17)
(-2.95238 2.67002 0)
(-2.7786 2.74868 9.30824e-18)
(-2.62164 2.81955 -1.30639e-17)
(-2.47854 2.88644 4.37526e-18)
(-4.06956 0.541945 -3.15421e-18)
(-4.27705 0.949629 -5.4036e-18)
(-4.23286 1.34584 7.62216e-18)
(-4.0963 1.6944 0)
(-3.8825 1.96434 -4.21016e-18)
(-3.643 2.16503 6.37102e-18)
(-3.40444 2.31844 -3.18394e-19)
(-3.17863 2.44123 1.23397e-19)
(-2.96969 2.54322 -5.187e-18)
(-2.77966 2.63048 -9.7721e-18)
(-2.60772 2.70835 4.37601e-18)
(-2.45164 2.7802 -4.43163e-18)
(-4.24127 0.696074 2.17009e-18)
(-4.51417 1.03366 0)
(-4.39406 1.32647 0)
(-4.21488 1.59641 0)
(-3.97127 1.8247 3.43894e-18)
(-3.70809 2.01292 0)
(-3.44911 2.16827 -4.08705e-19)
(-3.20495 2.29856 1.15593e-17)
(-2.97958 2.40959 2.79057e-19)
(-2.7745 2.50572 4.9433e-18)
(-2.58901 2.59069 -4.97985e-18)
(-2.4211 2.66763 1.47115e-17)
(-4.5047 0.82304 7.31096e-20)
(-4.71658 1.02628 7.48017e-18)
(-4.49187 1.22021 -2.2913e-18)
(-4.2537 1.44022 0)
(-3.98281 1.64392 0)
(-3.7036 1.82698 0)
(-3.43414 1.98855 0)
(-3.18183 2.1297 6.06388e-18)
(-2.94947 2.25266 -2.32319e-17)
(-2.73779 2.35994 -1.14612e-17)
(-2.54599 2.45405 1.10375e-17)
(-2.37216 2.53787 5.89685e-18)
(-4.56679 0.973025 -6.54482e-18)
(-4.68977 0.93548 -4.34314e-18)
(-4.37872 1.02308 -2.60037e-18)
(-4.08462 1.20733 0)
(-3.81186 1.40042 0)
(-3.54586 1.58867 7.27732e-18)
(-3.29396 1.76346 -1.34405e-17)
(-3.05864 1.92099 2.55346e-17)
(-2.84043 2.06035 1.805e-17)
(-2.6397 2.18265 1.12955e-17)
(-2.45604 2.28927 -1.09761e-17)
(-2.28785 2.38297 6.35125e-19)
(-4.18545 0.398968 -1.86142e-18)
(-4.1127 0.5648 0)
(-3.81199 0.692679 3.86234e-18)