/*--------------------------------*- C++ -*----------------------------------*\
| =========                 |                                                 |
| \\      /  F ield         | OpenFOAM: The Open Source CFD Toolbox           |
|  \\    /   O peration     | Version:  v1912                                 |
|   \\  /    A nd           | Website:  www.openfoam.com                      |
|    \\/     M anipulation  |                                                 |
\*---------------------------------------------------------------------------*/
FoamFile
{
    version     2.0;
    format      ascii;
    class       volScalarField;
    location    "500";
    object      epsilon;
}
// * * * * * * * * * * * * * * * * * * * * * * * * * * * * * * * * * * * * * //

dimensions      [0 2 -3 0 0 0 0];


internalField   nonuniform List<scalar> 
3072
(
3.55648
3.07041
3.56102
3.57718
3.32984
2.75962
2.77733
4.34188
20.0384
38.2821
46.7679
51.8258
7.02853
6.33025
5.14563
4.8541
5.37737
9.87776
20.3652
22.9495
28.2371
33.5427
34.9322
35.6973
8.66839
6.90787
9.01312
13.4538
17.5529
18.1517
19.4578
22.3325
25.891
27.6001
28.7078
29.8149
12.6448
10.1359
13.1532
15.138
16.1536
16.7235
19.3022
22.3015
24.4853
25.6878
26.6707
27.6148
14.5821
11.8654
13.7439
14.3288
15.1308
17.1481
20.0067
22.6889
24.4544
25.3766
26.1257
26.8423
15.5376
12.3087
13.4074
14.0514
15.7614
18.5272
21.4115
23.5548
24.8904
25.6878
26.3137
26.8875
16.0683
12.0311
12.9106
14.6769
17.4662
20.6576
23.3566
25.2435
26.3425
27.0036
27.4872
27.9146
16.6548
12.0115
13.6835
17.1268
21.3006
24.946
27.5652
29.1965
30.0495
30.4577
30.6576
30.7967
18.0866
13.1776
17.7158
24.1793
30.2148
34.4368
36.882
37.9456
38.0905
37.7187
37.1222
36.4785
20.6093
17.8795
30.2001
41.6546
49.7462
53.822
54.8244
53.9649
52.1022
49.8121
47.4708
45.279
25.5614
35.9263
61.3969
77.6117
83.7763
83.9327
80.8141
76.1
70.8225
65.5521
60.6458
56.2522
116.245
109.121
119.579
122.83
120.168
112.977
104.664
96.0666
87.7131
79.8349
72.6761
66.303
55.4187
57.1851
57.861
57.6202
56.7395
53.8255
49.8958
43.8741
36.8822
27.8764
18.4697
23.063
36.2569
36.7645
37.2541
37.8687
38.6611
39.9858
42.4845
46.4467
51.5556
57.4272
61.4304
74.9718
30.6616
31.3121
31.8046
32.3209
33.234
34.9629
38.0069
43.037
50.9477
62.9111
81.189
120.055
28.3431
28.9403
29.4832
30.1071
31.0763
32.8037
35.8731
41.1479
49.9337
64.7633
92.5763
152.312
27.4249
27.9116
28.3679
28.9283
29.836
31.4602
34.3885
39.5625
48.6372
65.0481
99.1724
178.173
27.3617
27.7708
28.1793
28.7067
29.5701
31.1187
33.937
38.9767
47.9588
64.9231
102.825
201.514
28.2985
28.6621
29.0463
29.5402
30.3225
31.72
34.299
39.0412
47.8047
64.6939
104.947
222.523
30.9261
31.0718
31.2692
31.5865
32.184
33.3377
35.5845
39.9148
48.2382
64.8474
105.909
247.836
35.893
35.4157
35.0871
34.993
35.2428
36.0002
37.7873
41.5713
49.3345
65.5501
107.461
277.702
43.3555
41.752
40.491
39.6232
39.282
39.6327
40.8514
43.9587
50.985
66.5736
109.056
309.575
52.4727
49.3456
46.8518
45.0065
43.8608
43.6948
44.465
46.8452
52.9284
67.635
111.165
349.523
60.8215
56.3079
52.7113
50.0283
48.2322
47.5091
47.9559
49.6576
54.3854
67.5913
111.427
416.559
3.55814
3.07184
3.56205
3.57804
3.33052
2.76007
2.7776
4.34139
20.0349
38.282
46.7699
51.8281
7.02873
6.33023
5.14512
4.85324
5.37662
9.8753
20.3643
22.9502
28.2367
33.5441
34.9343
35.6994
8.66757
6.90672
9.01031
13.4487
17.5516
18.1533
19.4578
22.3324
25.8913
27.6009
28.7087
29.8162
12.643
10.1342
13.1509
15.1369
16.1538
16.7237
19.3014
22.3015
24.4858
25.6888
26.6715
27.6159
14.5803
11.8639
13.7429
14.3281
15.1303
17.1477
20.0059
22.6892
24.455
25.3773
26.1264
26.8432
15.536
12.3078
13.4067
14.0507
15.7609
18.5268
21.4118
23.5555
24.8913
25.6886
26.3145
26.8883
16.0684
12.031
12.9106
14.6767
17.4664
20.6583
23.3576
25.2448
26.3437
27.0046
27.4881
27.9155
16.6565
12.0127
13.6844
17.1281
21.3025
24.9483
27.5676
29.1988
30.0515
30.4594
30.659
30.798
18.0904
13.1797
17.7183
24.1828
30.219
34.4416
36.8867
37.9497
38.094
37.7216
37.1247
36.4807
20.6145
17.8828
30.2042
41.6601
49.7528
53.8286
54.8307
53.9705
52.107
49.8162
47.4743
45.2821
25.5668
35.93
61.401
77.617
83.7824
83.939
80.8202
76.1056
70.8275
65.5566
60.6498
56.2558
116.249
109.121
119.579
122.831
120.17
112.98
104.668
96.0708
87.7172
79.8389
72.6798
66.3064
55.4219
57.1887
57.865
57.6244
56.744
53.83
49.9
43.8778
36.885
27.8788
18.4717
23.0662
36.2591
36.7668
37.2566
37.8715
38.6639
39.9888
42.4878
46.4503
51.5596
57.4313
61.4353
74.9795
30.663
31.3137
31.8063
32.3227
33.236
34.965
38.0092
43.0396
50.9508
62.915
81.1944
120.064
28.3443
28.9415
29.4846
30.1085
31.0779
32.8053
35.875
41.1501
49.9364
64.767
92.5819
152.322
27.4259
27.9127
28.369
28.9294
29.8372
31.4616
34.39
39.5644
48.6396
65.0516
99.178
178.184
27.3626
27.7717
28.1803
28.7077
29.5711
31.1199
33.9384
38.9784
47.9611
64.9264
102.831
201.526
28.2994
28.6631
29.0473
29.5412
30.3235
31.7212
34.3003
39.0428
47.8069
64.6972
104.952
222.536
30.9274
31.0731
31.2704
31.5877
32.1852
33.339
35.5859
39.9164
48.2403
64.8505
105.915
247.85
35.8949
35.4176
35.0888
34.9946
35.2443
36.0017
37.7888
41.573
49.3366
65.5531
107.466
277.718
43.3583
41.7545
40.4932
39.6252
39.2838
39.6345
40.8531
43.9604
50.9871
66.5765
109.062
309.592
52.4759
49.3485
46.8544
45.0089
43.8629
43.6967
44.4669
46.8471
52.9305
67.6377
111.17
349.543
60.8247
56.3109
52.7141
50.0308
48.2344
47.5111
47.9579
49.6596
54.3875
67.5938
111.431
416.582
3.55823
3.0714
3.56189
3.57789
3.33018
2.75978
2.77756
4.34348
20.0477
38.2906
46.7758
51.8344
7.03074
6.33166
5.14682
4.85541
5.37874
9.88251
20.3693
22.9525
28.2432
33.5479
34.9371
35.7024
8.67101
6.91001
9.0172
13.4595
17.5544
18.1513
19.4607
22.3365
25.8958
27.6047
28.7125
29.8195
12.6481
10.1386
13.1564
15.1392
16.1537
16.7254
19.3064
22.3055
24.4894
25.6917
26.6749
27.619
14.5852
11.8679
13.7455
14.3299
15.1327
17.1509
20.0109
22.6928
24.4582
25.3805
26.1298
26.8464
15.5404
12.3106
13.4089
14.0533
15.7638
18.5307
21.415
23.5582
24.894
25.6917
26.3179
26.8917
16.0702
12.0325
12.912
14.6787
17.4686
20.6603
23.3596
25.2468
26.3461
27.0077
27.4916
27.9191
16.6558
12.0121
13.6846
17.1282
21.3023
24.9481
27.5678
29.1997
30.0533
30.4621
30.6625
30.8017
18.0866
13.1777
17.7161
24.1797
30.2154
34.4381
36.8843
37.9489
38.0948
37.7237
37.1277
36.4841
20.6083
17.8789
30.1994
41.6536
49.7455
53.8223
54.8261
53.9679
52.1065
49.8172
47.4765
45.2849
25.5606
35.9258
61.3958
77.6099
83.7748
83.932
80.8149
76.1022
70.826
65.5566
60.651
56.2577
116.255
109.124
119.58
122.829
120.166
112.976
104.664
96.0677
87.7154
79.8382
72.6801
66.3074
55.4275
57.1938
57.8695
57.6284
56.7471
53.8322
49.9017
43.8788
36.8858
27.8789
18.4714
23.0657
36.2621
36.7697
37.2589
37.8733
38.6655
39.99
42.4887
46.451
51.5602
57.4318
61.4353
74.979
30.6663
31.3166
31.809
32.3251
33.2381
34.9669
38.011
43.0413
50.9525
62.9168
81.1956
120.065
28.3474
28.9445
29.4874
30.1112
31.0804
32.8078
35.8774
41.1525
49.9388
64.7695
92.5848
152.326
27.429
27.9158
28.3721
28.9324
29.8402
31.4645
34.3929
39.5673
48.6426
65.0547
99.1818
178.19
27.366
27.775
28.1836
28.711
29.5743
31.123
33.9415
38.9815
47.9644
64.9301
102.836
201.534
28.303
28.6666
29.0509
29.5447
30.3269
31.7245
34.3036
39.0461
47.8105
64.7012
104.957
222.545
30.9311
31.0768
31.2741
31.5912
32.1887
33.3423
35.5892
39.9198
48.244
64.8547
105.92
247.861
35.8986
35.4212
35.0924
34.998
35.2476
36.005
37.7921
41.5764
49.3402
65.5573
107.472
277.732
43.3614
41.7577
40.4964
39.6284
39.2869
39.6375
40.8561
43.9636
50.9906
66.5807
109.068
309.608
52.4783
49.351
46.857
45.0114
43.8655
43.6993
44.4695
46.8499
52.9337
67.6418
111.176
349.562
60.8261
56.3125
52.7158
50.0326
48.2363
47.5131
47.9599
49.6618
54.3901
67.5974
111.437
416.607
3.55861
3.07195
3.56248
3.57851
3.3309
2.76039
2.77807
4.34325
20.0446
38.2902
46.7768
51.8356
7.03086
6.33183
5.14677
4.85521
5.37878
9.88123
20.3694
22.9534
28.2428
33.5487
34.9383
35.7035
8.67075
6.90946
9.01528
13.4563
17.5551
18.1542
19.4613
22.3364
25.8957
27.6049
28.7126
29.8198
12.6471
10.1377
13.1553
15.1399
16.1556
16.7262
19.3056
22.3053
24.4893
25.6919
26.675
27.6192
14.5842
11.8672
13.7458
14.3307
15.133
17.1508
20.01
22.6926
24.4583
25.3805
26.1298
26.8465
15.5393
12.3104
13.4092
14.0533
15.7637
18.5301
21.4149
23.5583
24.8942
25.6917
26.3178
26.8916
16.0704
12.0327
12.9124
14.679
17.4688
20.6607
23.3601
25.2473
26.3464
27.0077
27.4915
27.9189
16.6572
12.0133
13.6856
17.1294
21.3038
24.9498
27.5693
29.2009
30.054
30.4624
30.6624
30.8015
18.0897
13.1796
17.7185
24.1829
30.2191
34.4418
36.8874
37.9511
38.0961
37.7243
37.1278
36.4839
20.6129
17.8822
30.2038
41.6593
49.7518
53.828
54.8306
53.9712
52.1085
49.8183
47.4769
45.2849
25.5657
35.9304
61.4017
77.6168
83.7817
83.9382
80.8199
76.1058
70.8284
65.558
60.6516
56.2579
116.261
109.128
119.584
122.834
120.172
112.981
104.668
96.071
87.7176
79.8397
72.681
66.3079
55.4292
57.1957
57.8717
57.6308
56.7497
53.8348
49.9042
43.881
36.8875
27.8803
18.4726
23.0677
36.2631
36.7707
37.2602
37.8748
38.6671
39.9917
42.4906
46.4532
51.5625
57.4343
61.4383
74.9837
30.6666
31.3171
31.8095
32.3258
33.2389
34.9678
38.012
43.0425
50.9539
62.9187
81.1985
120.07
28.3476
28.9447
29.4877
30.1116
31.0809
32.8083
35.8779
41.1532
49.9398
64.771
92.5871
152.331
27.4291
27.9159
28.3722
28.9326
29.8404
31.4647
34.3932
39.5677
48.6432
65.0558
99.1837
178.195
27.3659
27.775
28.1836
28.711
29.5744
31.1231
33.9417
38.9819
47.9649
64.9309
102.837
201.538
28.3028
28.6665
29.0507
29.5446
30.3269
31.7245
34.3037
39.0464
47.8109
64.7019
104.958
222.55
30.9308
31.0765
31.2738
31.5911
32.1886
33.3423
35.5894
39.9201
48.2444
64.8554
105.922
247.866
35.8983
35.4209
35.0921
34.9978
35.2475
36.005
37.7922
41.5766
49.3407
65.558
107.473
277.736
43.3612
41.7574
40.4962
39.6282
39.2869
39.6375
40.8563
43.9639
50.991
66.5812
109.069
309.612
52.4782
49.3509
46.8569
45.0114
43.8656
43.6995
44.4698
46.8502
52.9341
67.6422
111.177
349.564
60.8263
56.3128
52.716
50.0329
48.2367
47.5135
47.9604
49.6622
54.3904
67.5976
111.438
416.606
156.027
147.592
139.188
130.982
123.862
116.442
108.813
101.037
93.2136
85.4247
78.0558
71.232
97.12
98.4437
98.4694
97.8939
96.9396
95.2286
92.8834
89.6854
85.3363
80
74.5273
69.0162
69.1876
70.578
71.434
71.8964
72.2011
72.0963
71.6032
70.6
69.0203
67.0421
64.5195
61.3106
54.7362
55.2337
55.3892
55.321
55.2284
55.1006
54.912
54.6157
54.1587
53.5373
52.7528
51.8529
65.1995
60.2223
56.2483
53.2854
51.3059
50.2959
50.495
51.5533
54.6671
63.2255
86.419
170.335
63.9195
59.7648
56.4672
54.0377
52.4025
51.4153
51.4175
51.9691
53.6826
57.9294
68.3687
92.8593
58.2035
55.8143
53.8611
52.3635
51.245
50.4089
50.1042
50.2087
51.0912
52.882
57.6423
66.3378
51.1275
50.3305
49.3209
48.267
47.2749
46.4379
46.0357
46.0303
46.7271
47.6796
50.0889
53.5013
156.018
147.587
139.185
130.98
123.862
116.443
108.815
101.04
93.2164
85.4276
78.0588
71.2349
97.1162
98.4407
98.4676
97.8929
96.9395
95.2293
92.8844
89.6869
85.3383
80.0022
74.5296
69.0186
69.1853
70.5762
71.4327
71.8957
72.2013
72.0969
71.6041
70.6012
69.0217
67.0436
64.5212
61.3126
54.7336
55.232
55.3886
55.3209
55.2287
55.1013
54.913
54.6169
54.16
53.5388
52.7545
51.8547
65.2024
60.2251
56.2509
53.2879
51.3082
50.2979
50.497
51.5552
54.6691
63.2278
86.4222
170.341
63.922
59.7673
56.4696
54.04
52.4047
51.4174
51.4195
51.971
53.6846
57.9314
68.3711
92.8625
58.2056
55.8164
53.8633
52.3656
51.247
50.411
50.1061
50.2106
51.0931
52.884
57.6444
66.3402
51.1293
50.3325
49.3228
48.2689
47.2768
46.4398
46.0375
46.0321
46.7288
47.6813
50.0906
53.503
156.024
147.592
139.189
130.982
123.861
116.441
108.812
101.038
93.2147
85.4266
78.0583
71.235
97.1193
98.4443
98.4706
97.895
96.9405
95.2291
92.8838
89.6858
85.3368
80.0009
74.5287
69.018
69.1876
70.5787
71.4351
71.8977
72.2024
72.0974
71.6041
70.6008
69.021
67.0427
64.5202
61.3115
54.7353
55.2337
55.3901
55.3222
55.2296
55.1018
54.9132
54.6167
54.1596
53.5382
52.7537
51.8539
65.2027
60.2256
56.2517
53.2887
51.3092
50.2991
50.4983
51.5567
54.6711
63.2305
86.4265
170.352
63.9215
59.767
56.4695
54.0401
52.405
51.418
51.4203
51.972
53.6859
57.9334
68.3741
92.8677
58.2047
55.8156
53.8627
52.3653
51.2469
50.4111
50.1068
50.2115
51.0944
52.8858
57.647
66.3439
51.1287
50.3319
49.3225
48.2689
47.2771
46.4405
46.0389
46.0337
46.7309
47.6839
50.0938
53.5068
156.032
147.597
139.193
130.986
123.865
116.445
108.816
101.041
93.2173
85.4285
78.0598
71.2361
97.1251
98.4495
98.4755
97.8998
96.9454
95.234
92.8885
89.6901
85.3405
80.004
74.5313
69.0202
69.192
70.5833
71.4397
71.9025
72.2074
72.1025
71.6092
70.6057
69.0258
67.0471
64.5242
61.3149
54.7395
55.2381
55.3947
55.3269
55.2345
55.1068
54.9181
54.6216
54.1643
53.5426
52.7578
51.8577
65.2037
60.2266
56.2526
53.2897
51.3102
50.2999
50.499
51.5573
54.6714
63.2305
86.426
170.35
63.9235
59.7689
56.4713
54.0418
52.4065
51.4191
51.4212
51.9726
53.6862
57.9333
68.3736
92.8667
58.2078
55.8185
53.8652
52.3674
51.2486
50.4123
50.1073
50.2118
51.0943
52.8854
57.6463
66.343
51.132
50.3347
49.3246
48.2704
47.278
46.4408
46.0386
46.0332
46.7301
47.6829
50.0928
53.5064
45.3264
44.9531
44.538
44.1663
43.9503
43.827
43.7704
43.7833
43.8529
43.9949
44.1909
44.3893
38.0544
37.6086
37.2454
37.0082
36.9213
36.9419
37.0684
37.3485
37.7808
38.3077
38.8003
39.0431
32.6377
32.4254
32.2997
32.26
32.2789
32.3332
32.4649
32.8205
33.4499
34.3379
35.4327
36.2609
28.4817
28.5471
28.6504
28.7472
28.7851
28.7368
28.7063
28.8357
29.3608
30.4958
32.9025
37.27
44.4416
42.6854
41.0731
40.2807
39.8778
39.9483
40.5329
41.4356
42.6093
43.8079
45.083
45.7834
38.8018
35.327
33.2679
32.754
32.9648
33.7712
34.9958
36.3655
37.5772
38.4662
39.0677
38.9027
36.5069
29.741
27.1445
26.7478
27.3079
28.4881
29.9932
31.432
32.5273
33.2351
33.5527
33.2446
41.5185
25.8658
22.3455
21.9194
22.6448
23.9513
25.4961
26.8736
27.8791
28.5178
28.8046
28.6924
45.3257
44.9532
44.5388
44.1673
43.9515
43.8284
43.7719
43.7849
43.8547
43.9967
44.1928
44.3912
38.0548
37.6095
37.2468
37.0097
36.9229
36.9436
37.0701
37.3502
37.7825
38.3096
38.8023
39.0451
32.6386
32.4266
32.3012
32.2617
32.2806
32.3349
32.4665
32.822
33.4515
34.3396
35.4346
36.2629
28.483
28.5485
28.652
28.7489
28.7868
28.7384
28.7078
28.837
29.3621
30.4972
32.9041
37.272
44.4434
42.6871
41.0747
40.2822
39.8792
39.9496
40.5341
41.4367
42.6104
43.809
45.084
45.7844
38.8036
35.3285
33.2693
32.7551
32.9658
33.7721
34.9965
36.3661
37.5777
38.4667
39.0682
38.9032
36.5088
29.7423
27.1454
26.7486
27.3084
28.4885
29.9935
31.4322
32.5275
33.2352
33.5529
33.2448
41.5206
25.8668
22.3461
21.9199
22.6451
23.9514
25.4961
26.8735
27.879
28.5177
28.8046
28.6924
45.3266
44.9541
44.5394
44.1678
43.9517
43.8284
43.7717
43.7847
43.8544
43.9965
44.1928
44.3917
38.0552
37.6099
37.247
37.0098
36.9229
36.9435
37.0701
37.3503
37.7829
38.3104
38.8038
39.0472
32.6388
32.4268
32.3013
32.2618
32.2807
32.3351
32.4669
32.8229
33.4527
34.3414
35.4377
36.2672
28.483
28.5485
28.6521
28.7491
28.7871
28.739
28.7086
28.8386
29.3641
30.5002
32.9085
37.2784
44.4443
42.6882
41.0761
40.284
39.8815
39.9522
40.5372
41.4401
42.614
43.8129
45.0883
45.7889
38.8066
35.3313
33.2722
32.7584
32.9694
33.7759
35.0006
36.3704
37.5822
38.4713
39.0728
38.9078
36.5138
29.7465
27.1495
26.7528
27.3128
28.493
29.9982
31.437
32.5322
33.2399
33.5575
33.2492
41.5296
25.8721
22.3507
21.9244
22.6497
23.9562
25.501
26.8783
27.8837
28.5223
28.8089
28.6964
45.3312
44.9586
44.544
44.1723
43.9562
43.8327
43.7758
43.7885
43.8578
43.9995
44.1952
44.3934
38.0597
37.6142
37.2512
37.0138
36.9266
36.9469
37.0731
37.3528
37.7848
38.3115
38.8041
39.0468
32.6429
32.4306
32.3049
32.265
32.2836
32.3375
32.4688
32.8238
33.4531
34.341
35.4361
36.2647
28.4866
28.5518
28.655
28.7516
28.7892
28.7404
28.7094
28.8383
29.3631
30.4982
32.9055
37.2742
44.4453
42.6887
41.0761
40.2836
39.8806
39.9511
40.5358
41.4386
42.6126
43.8115
45.0872
45.7879
38.8053
35.3301
33.2709
32.7569
32.9677
33.7741
34.9987
36.3685
37.5804
38.4697
39.0715
38.9065
36.5108
29.7441
27.1473
26.7506
27.3106
28.4908
29.996
31.4349
32.5303
33.2382
33.556
33.2476
41.5238
25.8689
22.3482
21.9221
22.6474
23.9539
25.4987
26.8762
27.8817
28.5205
28.8074
28.6948
25.0702
25.3606
25.6306
25.7956
25.7636
25.4495
24.9619
24.4104
23.9133
23.5496
23.739
27.4334
22.0733
22.5235
22.8898
23.0653
22.8831
22.2083
21.0778
19.4805
17.2736
13.9743
8.3215
3.35357
19.3255
19.8721
20.2787
20.4288
20.0826
19.0714
17.3619
14.9017
11.584
7.34718
3.19112
1.9356
16.7613
17.3513
17.7679
17.8831
17.4198
16.2002
14.1681
11.345
7.88398
4.34737
2.0549
1.80971
14.3799
14.9757
15.3869
15.476
14.9702
13.7041
11.6348
8.89343
5.84956
3.24366
1.79645
1.77104
12.2118
12.7878
13.1858
13.2643
12.7849
11.6093
9.70969
7.29333
4.80245
2.86247
1.7673
1.69154
10.298
10.8373
11.2178
11.2985
10.8896
9.89367
8.26877
6.2529
4.26077
2.7554
1.81891
1.52917
8.68301
9.17718
9.53715
9.62407
9.30766
8.52733
7.2018
5.56852
3.97711
2.74921
1.8891
1.30952
7.42461
7.87412
8.21296
8.31168
8.08678
7.50236
6.45339
5.14481
3.85755
2.80155
1.93812
1.03496
6.64487
7.06669
7.39751
7.51296
7.3642
6.91576
6.07864
5.01476
3.90552
2.91832
1.95543
0.725415
6.84152
7.30062
7.67394
7.82494
7.71064
7.27654
6.53059
5.56522
4.42995
3.26197
1.94621
0.412866
12.7549
13.7555
14.6318
15
14.7619
13.9005
12.4673
10.4497
7.84776
4.89077
2.2947
0.547293
68.324
22.5336
18.2807
17.9263
18.7296
20.0284
21.4936
22.7819
23.7412
24.3811
24.7597
24.918
41.0663
17.4475
14.6675
14.5742
15.4141
16.6394
17.9762
19.1667
20.093
20.7693
21.2621
21.6533
28.9799
13.4529
11.6698
11.7851
12.6137
13.7322
14.9251
16.0093
16.8907
17.594
18.1859
18.7454
21.2623
10.4403
9.25983
9.48825
10.268
11.2646
12.3118
13.2837
14.1079
14.811
15.4553
16.1022
15.7769
8.16159
7.34113
7.6145
8.32394
9.19656
10.1042
10.9587
11.7144
12.3897
13.0356
13.7017
11.6446
6.41194
5.81721
6.09837
6.73261
7.48817
8.26549
9.00652
9.68318
10.3071
10.9194
11.5586
8.52174
5.06861
4.60771
4.87965
5.44927
6.10211
6.76276
7.39851
7.99297
8.55361
9.11203
9.69753
6.17403
3.99981
3.64562
3.90696
4.43539
5.00698
5.56943
6.11276
6.63063
7.12715
7.62521
8.14693
4.33344
3.0795
2.86863
3.14765
3.66662
4.18514
4.67324
5.14308
5.59892
6.04165
6.48594
6.9487
2.84558
2.25011
2.24364
2.61419
3.17709
3.68518
4.13019
4.54995
4.96289
5.36778
5.78139
6.20763
1.68557
1.5561
1.84133
2.44328
3.11392
3.66852
4.13253
4.57381
5.02054
5.46184
5.91435
6.37395
1.24466
1.67393
2.9798
4.35083
5.41916
6.28168
7.07297
7.9376
8.91774
9.89522
10.8397
11.78
25.0714
25.362
25.6322
25.7973
25.7652
25.4511
24.9633
24.4116
23.9144
23.5506
23.7402
27.4358
22.0743
22.5248
22.8913
23.0669
22.8848
22.2098
21.0791
19.4816
17.2745
13.9751
8.32231
3.35429
19.3265
19.8734
20.2801
20.4304
20.0842
19.0729
17.3633
14.9028
11.585
7.348
3.19174
1.93617
16.7622
17.3524
17.7692
17.8845
17.4213
16.2016
14.1694
11.3461
7.88498
4.34812
2.0554
1.81025
14.3807
14.9768
15.3881
15.4773
14.9716
13.7055
11.6362
8.89459
5.8505
3.24432
1.79689
1.77156
12.2126
12.7888
13.1869
13.2656
12.7862
11.6106
9.71096
7.29443
4.80332
2.86308
1.76772
1.69202
10.2988
10.8382
11.2189
11.2997
10.8908
9.89492
8.26996
6.25392
4.26158
2.75597
1.81931
1.5296
8.68377
9.17802
9.5381
9.62512
9.30879
8.52848
7.2029
5.56947
3.97786
2.74977
1.88951
1.30987
7.42536
7.87493
8.21387
8.31268
8.08784
7.50343
6.45443
5.14571
3.85828
2.8021
1.93852
1.03523
6.64566
7.06753
7.39842
7.51394
7.36523
6.91681
6.07965
5.01565
3.90626
2.91889
1.95584
0.725596
6.84228
7.30158
7.67498
7.82605
7.7118
7.27771
6.53172
5.56621
4.43081
3.26261
1.94662
0.412962
12.7567
13.7576
14.6339
15.0023
14.7643
13.9029
12.4695
10.4516
7.84936
4.89179
2.29518
0.547397
68.3284
22.5345
18.2811
17.9266
18.7296
20.0283
21.4934
22.7817
23.741
24.3809
24.7596
24.9179
41.0684
17.4481
14.6677
14.5743
15.414
16.6392
17.976
19.1665
20.0928
20.7691
21.262
21.6533
28.9812
13.4533
11.67
11.7851
12.6136
13.732
14.9249
16.0091
16.8905
17.5939
18.1858
18.7454
21.2631
10.4406
9.25995
9.48827
10.2679
11.2645
12.3117
13.2836
14.1077
14.811
15.4552
16.1023
15.7775
8.16181
7.34124
7.61454
8.32392
9.19649
10.1041
10.9586
11.7143
12.3897
13.0356
13.7018
11.645
6.41212
5.81733
6.09844
6.73264
7.48817
8.26547
9.00651
9.6832
10.3072
10.9195
11.5588
8.52204
5.06876
4.60782
4.87975
5.44936
6.10217
6.76282
7.39858
7.99307
8.55374
9.11221
9.69778
6.17424
3.99993
3.64574
3.90709
4.43552
5.0071
5.56955
6.11289
6.63079
7.12733
7.62544
8.14721
4.33359
3.07959
2.86874
3.14779
3.66679
4.18531
4.67341
5.14326
5.59912
6.04187
6.48621
6.94902
2.84568
2.25018
2.24374
2.61436
3.1773
3.68539
4.1304
4.55017
4.96313
5.36804
5.78169
6.20798
1.68563
1.55616
1.84145
2.44348
3.11417
3.66877
4.13278
4.57407
5.02084
5.46216
5.91471
6.37437
1.24469
1.67401
2.98004
4.35121
5.41959
6.28208
7.07335
7.93803
8.91826
9.89581
10.8404
11.7807
25.0714
25.3621
25.6324
25.7976
25.7658
25.452
24.9646
24.4134
23.9168
23.5537
23.7438
27.4395
22.0744
22.525
22.8917
23.0674
22.8856
22.2109
21.0806
19.4834
17.2765
13.977
8.32334
3.35441
19.3267
19.8737
20.2806
20.431
20.0851
19.0741
17.3646
14.9043
11.5863
7.34882
3.19191
1.93613
16.7624
17.3528
17.7697
17.8852
17.4222
16.2028
14.1706
11.3472
7.88576
4.34845
2.05544
1.81021
14.381
14.9772
15.3886
15.478
14.9725
13.7065
11.6371
8.89539
5.85099
3.24449
1.79693
1.77153
12.2129
12.7892
13.1874
13.2663
12.7871
11.6115
9.71178
7.29504
4.80366
2.86321
1.76777
1.69201
10.2991
10.8387
11.2194
11.3003
10.8916
9.89568
8.27065
6.25441
4.26186
2.75611
1.81937
1.5296
8.68413
9.17846
9.53863
9.62574
9.30947
8.52915
7.2035
5.56989
3.97812
2.74992
1.88959
1.30989
7.42575
7.87537
8.21439
8.31324
8.08846
7.50401
6.45498
5.14608
3.85854
2.80227
1.93861
1.03525
6.64607
7.06798
7.39892
7.51448
7.36581
6.91735
6.08016
5.01601
3.90652
2.91907
1.95594
0.725614
6.84274
7.30209
7.67552
7.82663
7.71241
7.27828
6.53226
5.56661
4.43111
3.26283
1.94673
0.412977
12.7575
13.7585
14.6349
15.0034
14.7654
13.904
12.4705
10.4524
7.84991
4.89211
2.29532
0.547432
68.3462
22.5403
18.2859
17.9312
18.7343
20.0331
21.4981
22.7863
23.7454
24.3852
24.7635
24.9214
41.0814
17.4534
14.6722
14.5787
15.4185
16.6437
17.9805
19.1708
20.0969
20.7729
21.2655
21.6563
28.9914
13.458
11.674
11.7891
12.6177
13.7361
14.929
16.013
16.8942
17.5973
18.1888
18.7479
21.2712
10.4446
9.26353
9.49185
10.2716
11.2682
12.3154
13.2871
14.111
14.8139
15.4578
16.1044
15.7838
8.16518
7.34433
7.61768
8.32715
9.19978
10.1073
10.9617
11.7172
12.3922
13.0379
13.7036
11.6498
6.41492
5.81994
6.10114
6.73546
7.49105
8.26831
9.00921
9.68568
10.3094
10.9214
11.5604
8.52566
5.07106
4.61002
4.88204
5.45179
6.10468
6.76529
7.40094
7.99523
8.55567
9.11386
9.69911
6.17691
4.0018
3.64755
3.90903
4.43762
5.00928
5.57173
6.11496
6.63269
7.12902
7.62688
8.14838
4.33547
3.08106
2.87022
3.14943
3.66861
4.18725
4.67536
5.14512
5.60082
6.0434
6.48752
6.95008
2.8469
2.25126
2.24492
2.61579
3.17896
3.68719
4.13222
4.55191
4.96474
5.36949
5.78294
6.209
1.68632
1.5569
1.84247
2.44489
3.11587
3.67067
4.13472
4.57595
5.02258
5.46374
5.91609
6.3755
1.24516
1.67476
2.98192
4.3538
5.42274
6.28557
7.0769
7.9415
8.92155
9.89887
10.8431
11.7831
25.0744
25.3647
25.6346
25.7994
25.767
25.4525
24.9645
24.4124
23.9151
23.5513
23.7411
27.4372
22.0769
22.527
22.8933
23.0686
22.8861
22.2109
21.08
19.4822
17.2751
13.9756
8.32279
3.3545
19.3286
19.8751
20.2817
20.4316
20.0852
19.0737
17.3639
14.9033
11.5854
7.3484
3.19196
1.93626
16.764
17.3539
17.7704
17.8855
17.422
16.2022
14.1699
11.3466
7.88534
4.34838
2.0555
1.81032
14.3823
14.978
15.3891
15.4781
14.9722
13.706
11.6365
8.89491
5.85077
3.24448
1.79694
1.77162
12.214
12.7899
13.1877
13.2662
12.7867
11.611
9.71124
7.29467
4.8035
2.86317
1.76775
1.69205
10.3001
10.8392
11.2196
11.3002
10.8912
9.89521
8.27018
6.2541
4.2617
2.75603
1.81932
1.52962
8.68497
9.17897
9.53883
9.62565
9.30918
8.52875
7.20308
5.56961
3.97795
2.7498
1.8895
1.30988
7.42653
7.87587
8.21459
8.31321
8.08824
7.50371
6.4546
5.14584
3.85835
2.80212
1.93851
1.03523
6.64684
7.06851
7.39919
7.51451
7.36568
6.91711
6.07986
5.01579
3.90633
2.9189
1.95582
0.725593
6.84365
7.30273
7.6759
7.82674
7.71233
7.2781
6.53199
5.56639
4.43088
3.26263
1.9466
0.412956
12.7594
13.7599
14.6358
15.0036
14.7653
13.9036
12.4701
10.452
7.84948
4.8918
2.29515
0.547378
68.3353
22.5368
18.2832
17.9287
18.7319
20.0308
21.4959
22.7843
23.7436
24.3835
24.7621
24.9198
41.0735
17.4502
14.6697
14.5763
15.4162
16.6415
17.9784
19.1688
20.0951
20.7715
21.2644
21.6546
28.9852
13.4552
11.6717
11.787
12.6155
13.7341
14.927
16.0112
16.8926
17.596
18.1877
18.7464
21.2663
10.4422
9.26145
9.48985
10.2696
11.2663
12.3135
13.2854
14.1095
14.8127
15.4568
16.1031
15.78
8.16312
7.34248
7.61587
8.32536
9.19803
10.1057
10.9602
11.7158
12.3911
13.0369
13.7026
11.6469
6.41319
5.81834
6.09952
6.73383
7.48945
8.26679
9.00782
9.68445
10.3084
10.9205
11.5595
8.52344
5.06963
4.60864
4.88061
5.45032
6.10322
6.76391
7.39967
7.99411
8.55471
9.11306
9.69834
6.17527
4.00063
3.64638
3.90777
4.43628
5.00794
5.57045
6.11379
6.63166
7.12815
7.62615
8.14767
4.33432
3.08014
2.86925
3.14832
3.66739
4.18599
4.67416
5.14403
5.59987
6.04258
6.48682
6.94939
2.84616
2.25059
2.24413
2.61477
3.17779
3.68597
4.13105
4.55085
4.96381
5.36869
5.78225
6.20831
1.68591
1.55643
1.84176
2.44385
3.11463
3.66934
4.13344
4.57478
5.02155
5.46286
5.91532
6.37464
1.2449
1.67428
2.98056
4.35188
5.42048
6.28321
7.07466
7.9394
8.91962
9.89717
10.8416
11.7813
)
;

boundaryField
{
    rotor
    {
        lowReCorrection 0;
        type            epsilonWallFunction;
        value           nonuniform List<scalar> 
192
(
3.55648
3.07041
3.56102
3.57718
3.32984
2.75962
2.77733
4.34188
20.0384
38.2821
46.7679
51.8258
55.4187
57.1851
57.861
57.6202
56.7395
53.8255
49.8958
43.8741
36.8822
27.8764
18.4697
23.063
3.55814
3.07184
3.56205
3.57804
3.33052
2.76007
2.7776
4.34139
20.0349
38.282
46.7699
51.8281
55.4219
57.1887
57.865
57.6244
56.744
53.83
49.9
43.8778
36.885
27.8788
18.4717
23.0662
3.55823
3.0714
3.56189
3.57789
3.33018
2.75978
2.77756
4.34348
20.0477
38.2906
46.7758
51.8344
55.4275
57.1938
57.8695
57.6284
56.7471
53.8322
49.9017
43.8788
36.8858
27.8789
18.4714
23.0657
3.55861
3.07195
3.56248
3.57851
3.3309
2.76039
2.77807
4.34325
20.0446
38.2902
46.7768
51.8356
55.4292
57.1957
57.8717
57.6308
56.7497
53.8348
49.9042
43.881
36.8875
27.8803
18.4726
23.0677
3.55648
7.02853
8.66839
12.6448
14.5821
15.5376
16.0683
16.6548
18.0866
20.6093
25.5614
116.245
23.0677
74.9837
120.07
152.331
178.195
201.538
222.55
247.866
277.736
309.612
349.564
416.606
3.55814
7.02873
8.66757
12.643
14.5803
15.536
16.0684
16.6565
18.0904
20.6145
25.5668
116.249
23.063
74.9718
120.055
152.312
178.173
201.514
222.523
247.836
277.702
309.575
349.523
416.559
3.55823
7.03074
8.67101
12.6481
14.5852
15.5404
16.0702
16.6558
18.0866
20.6083
25.5606
116.255
23.0662
74.9795
120.064
152.322
178.184
201.526
222.536
247.85
277.718
309.592
349.543
416.582
3.55861
7.03086
8.67075
12.6471
14.5842
15.5393
16.0704
16.6572
18.0897
20.6129
25.5657
116.261
23.0657
74.979
120.065
152.326
178.19
201.534
222.545
247.861
277.732
309.608
349.562
416.607
)
;
    }
    stator
    {
        lowReCorrection 0;
        type            epsilonWallFunction;
        value           nonuniform List<scalar> 
192
(
12.7549
13.7555
14.6318
15
14.7619
13.9005
12.4673
10.4497
7.84776
4.89077
2.2947
0.547293
1.24466
1.67393
2.9798
4.35083
5.41916
6.28168
7.07297
7.9376
8.91774
9.89522
10.8397
11.78
12.7567
13.7576
14.6339
15.0023
14.7643
13.9029
12.4695
10.4516
7.84936
4.89179
2.29518
0.547397
1.24469
1.67401
2.98004
4.35121
5.41959
6.28208
7.07335
7.93803
8.91826
9.89581
10.8404
11.7807
12.7575
13.7585
14.6349
15.0034
14.7654
13.904
12.4705
10.4524
7.84991
4.89211
2.29532
0.547432
1.24516
1.67476
2.98192
4.3538
5.42274
6.28557
7.0769
7.9415
8.92155
9.89887
10.8431
11.7831
12.7594
13.7599
14.6358
15.0036
14.7653
13.9036
12.4701
10.452
7.84948
4.8918
2.29515
0.547378
1.2449
1.67428
2.98056
4.35188
5.42048
6.28321
7.07466
7.9394
8.91962
9.89717
10.8416
11.7813
68.324
41.0663
28.9799
21.2623
15.7769
11.6446
8.52174
6.17403
4.33344
2.84558
1.68557
1.24466
27.4334
3.35357
1.9356
1.80971
1.77104
1.69154
1.52917
1.30952
1.03496
0.725415
0.412866
0.547293
68.3284
41.0684
28.9812
21.2631
15.7775
11.645
8.52204
6.17424
4.33359
2.84568
1.68563
1.24469
27.4358
3.35429
1.93617
1.81025
1.77156
1.69202
1.5296
1.30987
1.03523
0.725596
0.412962
0.547397
68.3462
41.0814
28.9914
21.2712
15.7838
11.6498
8.52566
6.17691
4.33547
2.8469
1.68632
1.24516
27.4395
3.35441
1.93613
1.81021
1.77153
1.69201
1.5296
1.30989
1.03525
0.725614
0.412977
0.547432
68.3353
41.0735
28.9852
21.2663
15.78
11.6469
8.52344
6.17527
4.33432
2.84616
1.68591
1.2449
27.4372
3.3545
1.93626
1.81032
1.77162
1.69205
1.52962
1.30988
1.03523
0.725593
0.412956
0.547378
)
;
    }
    front
    {
        type            empty;
    }
    back
    {
        type            empty;
    }
}


// ************************************************************************* //
