/*--------------------------------*- C++ -*----------------------------------*\
| =========                 |                                                 |
| \\      /  F ield         | OpenFOAM: The Open Source CFD Toolbox           |
|  \\    /   O peration     | Version:  v1912                                 |
|   \\  /    A nd           | Website:  www.openfoam.com                      |
|    \\/     M anipulation  |                                                 |
\*---------------------------------------------------------------------------*/
FoamFile
{
    version     2.0;
    format      ascii;
    class       volScalarField;
    location    "500";
    object      k;
}
// * * * * * * * * * * * * * * * * * * * * * * * * * * * * * * * * * * * * * //

dimensions      [0 2 -2 0 0 0 0];


internalField   nonuniform List<scalar> 
3072
(
0.0336445
0.0456599
0.0503957
0.0505468
0.0481891
0.0425175
0.0426982
0.057507
0.159414
0.24551
0.280588
0.300474
0.0570377
0.105605
0.108214
0.104635
0.0896273
0.092418
0.166193
0.193372
0.254493
0.33316
0.396329
0.464864
0.0701074
0.125828
0.163906
0.192971
0.20571
0.19647
0.226564
0.300779
0.39072
0.477649
0.554121
0.62169
0.0958183
0.185044
0.216283
0.219618
0.219074
0.242041
0.325067
0.420747
0.510596
0.589162
0.657203
0.715403
0.111402
0.217142
0.237925
0.237029
0.258126
0.332649
0.429452
0.521938
0.603322
0.672098
0.730985
0.781572
0.122345
0.23793
0.2632
0.277684
0.337274
0.42864
0.522383
0.606964
0.678447
0.738054
0.78904
0.833103
0.131236
0.258129
0.297592
0.34824
0.433008
0.528227
0.616537
0.692328
0.754821
0.806026
0.849218
0.886392
0.140542
0.288063
0.359376
0.453462
0.559902
0.65766
0.739069
0.804083
0.85491
0.894791
0.927252
0.95467
0.15483
0.336199
0.472007
0.615889
0.74457
0.843768
0.914814
0.964039
0.997296
1.01977
1.03574
1.04814
0.17568
0.416641
0.664177
0.865523
1.00989
1.10163
1.15375
1.17918
1.18704
1.18466
1.17732
1.16832
0.210448
0.567906
0.970908
1.21792
1.35021
1.4124
1.43178
1.42527
1.40141
1.36949
1.33499
1.30117
0.598184
0.972355
1.39292
1.58765
1.66221
1.67621
1.66475
1.62805
1.57965
1.52488
1.46889
1.41464
0.314213
0.32086
0.323388
0.322494
0.319203
0.308183
0.292995
0.268923
0.239536
0.198755
0.151057
0.117038
0.525992
0.576079
0.612491
0.629436
0.629195
0.62103
0.606878
0.582478
0.537567
0.443727
0.32628
0.276558
0.675374
0.714439
0.738255
0.748673
0.750612
0.749005
0.743557
0.732665
0.706616
0.642597
0.488029
0.404613
0.761602
0.79654
0.821117
0.836982
0.84713
0.854914
0.862662
0.869572
0.867014
0.833803
0.697265
0.503792
0.822694
0.855009
0.879494
0.897914
0.913172
0.928767
0.947838
0.970802
0.986915
0.979165
0.875683
0.591256
0.869977
0.900211
0.924807
0.945568
0.965434
0.988275
1.01793
1.05582
1.09648
1.11599
1.05868
0.67559
0.918088
0.945005
0.968227
0.989608
1.01215
1.0401
1.0782
1.12934
1.18964
1.2362
1.22024
0.756961
0.978207
0.998809
1.01768
1.03666
1.05871
1.08841
1.13169
1.1937
1.27294
1.34571
1.36102
0.850288
1.05858
1.06827
1.07864
1.09145
1.10926
1.13665
1.1808
1.25015
1.34725
1.4478
1.48232
0.956321
1.15997
1.15385
1.15177
1.15527
1.16559
1.18682
1.22711
1.29897
1.41133
1.54467
1.61441
1.06928
1.27087
1.24622
1.22869
1.22079
1.2252
1.2394
1.27272
1.33984
1.46015
1.6296
1.76612
1.20314
1.36581
1.32576
1.29594
1.27823
1.27837
1.28897
1.31621
1.37432
1.48591
1.67662
1.91698
1.40073
0.0336546
0.0456735
0.0504049
0.0505544
0.0481953
0.0425219
0.042701
0.0575031
0.159397
0.24551
0.280596
0.300484
0.0570382
0.105608
0.108213
0.104632
0.0896278
0.0924135
0.166179
0.193364
0.254476
0.333151
0.396327
0.464867
0.0701023
0.125816
0.16388
0.192937
0.205692
0.196465
0.226543
0.30075
0.390696
0.477633
0.554114
0.621692
0.0958085
0.18502
0.216259
0.219598
0.219056
0.242013
0.325021
0.420714
0.510576
0.589153
0.6572
0.715406
0.111392
0.217121
0.237902
0.237004
0.258091
0.332592
0.42941
0.521909
0.603303
0.672087
0.73098
0.781573
0.122336
0.23791
0.263172
0.277642
0.337223
0.428597
0.522354
0.606944
0.678435
0.738045
0.789035
0.833103
0.131235
0.258125
0.297578
0.348219
0.432986
0.528213
0.616529
0.692325
0.75482
0.806026
0.849219
0.886397
0.140551
0.288088
0.359399
0.453486
0.559927
0.657686
0.739095
0.804107
0.854931
0.894808
0.927267
0.954685
0.15485
0.336251
0.472066
0.615954
0.744639
0.843837
0.914878
0.964096
0.997345
1.01981
1.03578
1.04818
0.175709
0.416705
0.664251
0.86561
1.00998
1.10173
1.15384
1.17927
1.18711
1.18472
1.17737
1.16838
0.210477
0.567958
0.970972
1.218
1.3503
1.4125
1.43188
1.42537
1.4015
1.36957
1.33506
1.30124
0.598196
0.972376
1.39294
1.5877
1.66227
1.67628
1.66483
1.62814
1.57973
1.52496
1.46896
1.41471
0.314225
0.320874
0.323404
0.32251
0.31922
0.3082
0.293012
0.268938
0.239549
0.198767
0.151067
0.117049
0.526
0.576093
0.612512
0.629461
0.629221
0.62106
0.606908
0.582508
0.537597
0.443751
0.3263
0.276577
0.675381
0.714452
0.738274
0.748696
0.750638
0.749034
0.743587
0.732697
0.706648
0.642629
0.488054
0.404632
0.761611
0.796553
0.821133
0.837002
0.847155
0.854941
0.862692
0.869604
0.867047
0.833837
0.697297
0.503814
0.822701
0.855019
0.879508
0.897932
0.913194
0.928792
0.947866
0.970834
0.98695
0.979202
0.875719
0.59128
0.869982
0.90022
0.924819
0.945583
0.965454
0.988299
1.01796
1.05585
1.09651
1.11603
1.05872
0.675617
0.918096
0.945016
0.96824
0.989624
1.01217
1.04013
1.07823
1.12937
1.18968
1.23625
1.22029
0.756991
0.978223
0.998826
1.0177
1.03668
1.05873
1.08844
1.13172
1.19374
1.27298
1.34576
1.36107
0.85032
1.05861
1.0683
1.07867
1.09148
1.10929
1.13668
1.18084
1.25019
1.3473
1.44785
1.48237
0.956356
1.16002
1.1539
1.15181
1.15531
1.16563
1.18685
1.22715
1.29901
1.41138
1.54472
1.61447
1.06932
1.27094
1.24628
1.22874
1.22084
1.22524
1.23945
1.27277
1.33989
1.4602
1.62966
1.76619
1.20318
1.36588
1.32583
1.296
1.27828
1.27843
1.28902
1.31627
1.37437
1.48596
1.67668
1.91704
1.40078
0.0336555
0.0456697
0.050404
0.0505536
0.0481926
0.0425193
0.0427009
0.0575215
0.159464
0.245546
0.280619
0.300508
0.05705
0.105623
0.108227
0.104644
0.0896251
0.0924295
0.166224
0.193403
0.254548
0.333219
0.396393
0.464933
0.0701221
0.125856
0.163941
0.193002
0.205714
0.196474
0.226615
0.300849
0.390803
0.477737
0.554212
0.62178
0.0958353
0.185076
0.216304
0.21963
0.219088
0.242086
0.325159
0.420838
0.51069
0.589255
0.657301
0.715501
0.111418
0.217169
0.237948
0.237055
0.258176
0.332752
0.429551
0.522036
0.603421
0.672199
0.73109
0.781677
0.12236
0.237962
0.263238
0.277744
0.337365
0.428738
0.522479
0.607061
0.678548
0.73816
0.789151
0.833214
0.131246
0.258156
0.297634
0.348305
0.433089
0.528314
0.616628
0.692424
0.754925
0.806137
0.849335
0.886511
0.140549
0.288075
0.359406
0.453509
0.559963
0.657732
0.739152
0.804179
0.855017
0.894908
0.927375
0.954796
0.15483
0.336196
0.47202
0.615914
0.744609
0.843823
0.914887
0.96413
0.997403
1.01989
1.03587
1.04827
0.175674
0.416629
0.664179
0.865533
1.00991
1.10167
1.15381
1.17927
1.18714
1.18477
1.17744
1.16846
0.210443
0.567902
0.970912
1.21793
1.35022
1.41243
1.43183
1.42534
1.4015
1.36959
1.3351
1.3013
0.598216
0.972392
1.39294
1.58768
1.66223
1.67624
1.66479
1.62811
1.57973
1.52497
1.46899
1.41475
0.314246
0.320893
0.32342
0.322525
0.319231
0.308209
0.293018
0.268942
0.239552
0.198767
0.151066
0.117047
0.526068
0.576155
0.612567
0.629508
0.629263
0.621092
0.606936
0.58253
0.537612
0.44376
0.326302
0.276576
0.675467
0.714532
0.738346
0.748761
0.750696
0.749084
0.74363
0.732733
0.706679
0.642652
0.488065
0.404635
0.761702
0.796641
0.821217
0.837081
0.847227
0.855006
0.862751
0.869655
0.867092
0.833871
0.697319
0.503822
0.822801
0.855116
0.879602
0.898022
0.913279
0.928872
0.947939
0.9709
0.987008
0.979249
0.875751
0.591292
0.87009
0.900325
0.924922
0.945683
0.965549
0.988389
1.01804
1.05593
1.09658
1.11609
1.05876
0.675634
0.918208
0.945126
0.968348
0.989729
1.01227
1.04022
1.07832
1.12946
1.18976
1.23632
1.22034
0.757012
0.978335
0.998936
1.0178
1.03679
1.05884
1.08854
1.13182
1.19383
1.27307
1.34584
1.36113
0.850347
1.05872
1.06841
1.07877
1.09158
1.10939
1.13678
1.18093
1.25029
1.34739
1.44794
1.48244
0.956388
1.1601
1.15399
1.1519
1.1554
1.16572
1.18695
1.22725
1.29911
1.41148
1.54481
1.61454
1.06936
1.271
1.24635
1.22882
1.22091
1.22532
1.23952
1.27285
1.33998
1.4603
1.62976
1.76627
1.20323
1.36592
1.32588
1.29605
1.27834
1.27849
1.28909
1.31634
1.37445
1.48606
1.67678
1.91713
1.40084
0.0336577
0.0456748
0.0504092
0.0505591
0.0481992
0.0425254
0.0427059
0.0575194
0.159448
0.245545
0.280623
0.300512
0.0570501
0.105626
0.108232
0.104651
0.0896386
0.0924353
0.16622
0.193397
0.254532
0.333208
0.396387
0.464929
0.0701201
0.125851
0.16393
0.192993
0.205724
0.196488
0.226595
0.300822
0.390777
0.477717
0.554197
0.621771
0.0958299
0.185065
0.216302
0.219635
0.219092
0.242068
0.325111
0.420804
0.510664
0.589237
0.657286
0.71549
0.111412
0.217162
0.237945
0.237049
0.258151
0.33269
0.429505
0.522003
0.603394
0.672178
0.731072
0.781664
0.122354
0.237951
0.263222
0.277709
0.33731
0.428688
0.522442
0.607033
0.678524
0.738139
0.789131
0.833198
0.131247
0.258153
0.297619
0.348276
0.433055
0.528286
0.616605
0.692405
0.754905
0.806118
0.849315
0.886494
0.140555
0.288093
0.359417
0.453516
0.559967
0.657735
0.739153
0.804175
0.855008
0.894894
0.927359
0.95478
0.154847
0.336239
0.472066
0.615963
0.744657
0.843865
0.914919
0.96415
0.997412
1.01989
1.03586
1.04826
0.1757
0.41669
0.66425
0.865614
1.00999
1.10174
1.15387
1.17931
1.18717
1.18479
1.17745
1.16846
0.210471
0.567962
0.970989
1.21802
1.35032
1.41252
1.43191
1.4254
1.40154
1.36962
1.33512
1.30131
0.598237
0.972438
1.39301
1.58775
1.66232
1.67632
1.66487
1.62818
1.57978
1.52502
1.46902
1.41478
0.314253
0.3209
0.323428
0.322534
0.319241
0.308219
0.293028
0.268951
0.239559
0.198774
0.151072
0.117054
0.526066
0.576158
0.612573
0.629518
0.629275
0.621106
0.606951
0.582546
0.537629
0.443773
0.326313
0.276587
0.675461
0.714529
0.738347
0.748766
0.750703
0.749094
0.743642
0.732747
0.706693
0.642666
0.488077
0.404646
0.761695
0.796636
0.821215
0.837082
0.84723
0.855012
0.862759
0.869665
0.867103
0.833885
0.697333
0.503834
0.822791
0.855109
0.879597
0.898019
0.913278
0.928874
0.947943
0.970907
0.987017
0.979261
0.875765
0.591303
0.870077
0.900314
0.924913
0.945677
0.965545
0.988388
1.01805
1.05593
1.09659
1.1161
1.05878
0.675645
0.918193
0.945113
0.968338
0.989721
1.01227
1.04022
1.07832
1.12946
1.18977
1.23633
1.22035
0.757023
0.97832
0.998923
1.01779
1.03678
1.05883
1.08854
1.13182
1.19384
1.27307
1.34585
1.36114
0.850357
1.0587
1.0684
1.07876
1.09157
1.10939
1.13678
1.18094
1.25029
1.3474
1.44795
1.48245
0.956398
1.1601
1.15398
1.1519
1.1554
1.16572
1.18695
1.22725
1.29911
1.41148
1.54482
1.61455
1.06936
1.27101
1.24635
1.22882
1.22092
1.22533
1.23953
1.27286
1.33999
1.4603
1.62976
1.76627
1.20323
1.36595
1.3259
1.29607
1.27836
1.2785
1.2891
1.31635
1.37446
1.48606
1.67678
1.91712
1.40084
1.73062
1.72614
1.74184
1.7581
1.76782
1.76071
1.7401
1.70128
1.65185
1.59379
1.5327
1.47148
1.75379
1.70696
1.68607
1.6782
1.6764
1.6702
1.65718
1.63584
1.60331
1.5577
1.50762
1.45461
1.6667
1.62592
1.59064
1.56303
1.54218
1.52418
1.50742
1.48988
1.46966
1.4447
1.4146
1.38035
1.53773
1.50603
1.46675
1.4275
1.39476
1.36768
1.34482
1.32649
1.31231
1.30145
1.29285
1.28764
1.41548
1.3704
1.33748
1.31859
1.31871
1.32855
1.35289
1.40232
1.49187
1.65958
1.93842
1.85723
1.40632
1.37085
1.34761
1.33807
1.34178
1.35392
1.37776
1.41846
1.48417
1.59171
1.81409
1.8143
1.35357
1.34099
1.33693
1.33945
1.34811
1.36338
1.38483
1.41533
1.46158
1.52191
1.66177
1.69442
1.29327
1.30659
1.31446
1.32318
1.33286
1.34576
1.36363
1.38688
1.42111
1.45583
1.53369
1.55829
1.73058
1.72613
1.74184
1.75812
1.76786
1.76075
1.74016
1.70134
1.65192
1.59387
1.53278
1.47155
1.75376
1.70695
1.68607
1.67822
1.67643
1.67025
1.65723
1.6359
1.60337
1.55776
1.50768
1.45468
1.66665
1.62593
1.59065
1.56306
1.54221
1.52422
1.50746
1.48993
1.46971
1.44476
1.41466
1.38042
1.53766
1.50601
1.46678
1.42753
1.3948
1.36772
1.34487
1.32654
1.31236
1.30151
1.29291
1.28771
1.41555
1.37047
1.33755
1.31866
1.31877
1.32862
1.35295
1.40238
1.49193
1.65965
1.93849
1.8573
1.40639
1.37092
1.34769
1.33814
1.34185
1.35399
1.37783
1.41852
1.48424
1.59178
1.81416
1.81437
1.35364
1.34107
1.337
1.33952
1.34818
1.36345
1.3849
1.41539
1.46165
1.52198
1.66184
1.69448
1.29334
1.30665
1.31453
1.32325
1.33293
1.34583
1.36369
1.38694
1.42117
1.4559
1.53375
1.55834
1.73065
1.72619
1.74189
1.75815
1.76787
1.76075
1.74014
1.70133
1.65191
1.59387
1.53279
1.47157
1.75382
1.70701
1.68613
1.67827
1.67646
1.67026
1.65724
1.6359
1.60336
1.55776
1.50769
1.45468
1.66671
1.62599
1.59071
1.5631
1.54225
1.52425
1.50748
1.48994
1.46972
1.44476
1.41466
1.38041
1.53772
1.50606
1.46683
1.42757
1.39483
1.36775
1.34489
1.32655
1.31237
1.30151
1.29291
1.28771
1.41557
1.37049
1.33758
1.3187
1.31881
1.32866
1.35301
1.40245
1.49202
1.65975
1.93858
1.85738
1.40639
1.37093
1.3477
1.33816
1.34188
1.35403
1.37788
1.41859
1.48432
1.59188
1.81426
1.81446
1.35364
1.34107
1.33702
1.33954
1.34822
1.3635
1.38495
1.41546
1.46173
1.52208
1.66195
1.69459
1.29334
1.30667
1.31456
1.32329
1.33298
1.34589
1.36377
1.38703
1.42128
1.45601
1.53387
1.55847
1.7307
1.72624
1.74195
1.75821
1.76794
1.76083
1.74022
1.70141
1.65198
1.59393
1.53283
1.47161
1.75391
1.70709
1.68621
1.67834
1.67655
1.67035
1.65732
1.63599
1.60344
1.55784
1.50775
1.45474
1.66682
1.62609
1.5908
1.5632
1.54234
1.52435
1.50757
1.49004
1.46981
1.44485
1.41473
1.38049
1.53784
1.50618
1.46693
1.42767
1.39493
1.36785
1.34499
1.32665
1.31246
1.30159
1.29299
1.28778
1.41561
1.37053
1.33762
1.31873
1.31884
1.32869
1.35303
1.40245
1.49201
1.65974
1.93856
1.85737
1.40645
1.37098
1.34775
1.3382
1.34191
1.35405
1.37789
1.41859
1.48431
1.59186
1.81423
1.81443
1.35371
1.34113
1.33706
1.33958
1.34824
1.36351
1.38495
1.41545
1.46171
1.52205
1.66191
1.69455
1.2934
1.30672
1.31459
1.3233
1.33298
1.34588
1.36374
1.387
1.42123
1.45596
1.53382
1.55843
1.37492
1.33327
1.29169
1.25444
1.22498
1.2022
1.18569
1.17598
1.17349
1.17851
1.1927
1.21811
1.24474
1.20509
1.16812
1.13594
1.10992
1.08949
1.07516
1.06778
1.0677
1.07447
1.08962
1.11601
1.14276
1.11042
1.08009
1.05231
1.02722
1.00479
0.98607
0.971974
0.962692
0.957925
0.959519
0.975669
1.0596
1.03593
1.01213
0.987289
0.960649
0.93224
0.903109
0.874037
0.844762
0.814504
0.787124
0.783102
1.24663
1.2603
1.2607
1.26835
1.28124
1.30085
1.32612
1.35435
1.38434
1.41098
1.43446
1.41981
1.14763
1.16256
1.15703
1.16599
1.18602
1.21462
1.24786
1.28001
1.30475
1.31971
1.32234
1.29198
1.01867
1.04931
1.04501
1.05681
1.08307
1.118
1.15616
1.18797
1.20891
1.21892
1.21315
1.1822
0.840594
0.924214
0.93203
0.949047
0.980112
1.0187
1.05863
1.08961
1.1093
1.11808
1.11212
1.08807
1.37491
1.33329
1.29174
1.25449
1.22503
1.20226
1.18574
1.17603
1.17355
1.17856
1.19276
1.21817
1.24476
1.20514
1.16818
1.136
1.10998
1.08954
1.07522
1.06783
1.06775
1.07453
1.08967
1.11607
1.14281
1.11047
1.08015
1.05237
1.02728
1.00484
0.986125
0.972025
0.962741
0.957973
0.959567
0.975718
1.05965
1.03599
1.01219
0.987357
0.960714
0.9323
0.903163
0.874085
0.844805
0.814543
0.78716
0.783137
1.24669
1.26036
1.26076
1.26841
1.2813
1.3009
1.32617
1.3544
1.38439
1.41102
1.43451
1.41985
1.14769
1.16262
1.15708
1.16604
1.18606
1.21466
1.2479
1.28005
1.30478
1.31975
1.32237
1.29201
1.01871
1.04935
1.04505
1.05685
1.08311
1.11803
1.15619
1.18799
1.20893
1.21894
1.21317
1.18222
0.840632
0.92425
0.932062
0.949077
0.980139
1.01872
1.05865
1.08963
1.10932
1.1181
1.11214
1.08809
1.37495
1.33333
1.29176
1.25452
1.22505
1.20227
1.18575
1.17604
1.17355
1.17857
1.19278
1.2182
1.24479
1.20516
1.1682
1.13601
1.10999
1.08955
1.07523
1.06784
1.06777
1.07455
1.08971
1.11613
1.14282
1.11049
1.08017
1.05238
1.02729
1.00485
0.986137
0.972042
0.962768
0.958014
0.959618
0.975795
1.05966
1.036
1.0122
0.987366
0.960724
0.932313
0.903181
0.874111
0.84484
0.814591
0.78722
0.783214
1.24674
1.26042
1.26084
1.2685
1.2814
1.30101
1.32629
1.35453
1.38452
1.41116
1.43465
1.41998
1.14777
1.16272
1.1572
1.16617
1.1862
1.2148
1.24805
1.28019
1.30493
1.31989
1.32251
1.29214
1.01882
1.04948
1.0452
1.057
1.08327
1.11819
1.15635
1.18815
1.20909
1.21909
1.21331
1.18236
0.840751
0.924396
0.932224
0.949246
0.980312
1.0189
1.05882
1.0898
1.10948
1.11825
1.11228
1.08821
1.37507
1.33344
1.29187
1.25462
1.22515
1.20236
1.18584
1.17612
1.17362
1.17863
1.19282
1.21822
1.24491
1.20527
1.1683
1.13611
1.11007
1.08963
1.0753
1.0679
1.06781
1.07457
1.08972
1.11611
1.14294
1.11059
1.08026
1.05247
1.02737
1.00492
0.986185
0.972075
0.962782
0.958007
0.959599
0.975753
1.05977
1.0361
1.01229
0.987438
0.960784
0.932359
0.903211
0.874124
0.844834
0.814567
0.787184
0.783165
1.24674
1.26041
1.26081
1.26846
1.28135
1.30096
1.32623
1.35447
1.38446
1.4111
1.4346
1.41995
1.14773
1.16267
1.15714
1.1661
1.18613
1.21473
1.24797
1.28012
1.30487
1.31983
1.32247
1.2921
1.01876
1.0494
1.04512
1.05691
1.08318
1.11811
1.15627
1.18808
1.20902
1.21903
1.21326
1.18231
0.840677
0.924307
0.932128
0.949149
0.980216
1.0188
1.05873
1.08972
1.1094
1.11818
1.11223
1.08816
0.986447
0.971168
0.953177
0.930255
0.900625
0.863775
0.819915
0.768708
0.707044
0.625038
0.491435
0.294232
0.917086
0.909229
0.896338
0.874937
0.842203
0.796576
0.736977
0.66178
0.566014
0.437446
0.240981
0.0741674
0.847924
0.846302
0.837942
0.818231
0.783467
0.731007
0.658808
0.565354
0.448344
0.307274
0.150624
0.0525733
0.777482
0.780796
0.776577
0.759075
0.724123
0.668354
0.589532
0.487908
0.366885
0.239553
0.130032
0.0513613
0.705849
0.712862
0.712227
0.697528
0.664418
0.609289
0.530258
0.429953
0.316795
0.209044
0.126121
0.0516923
0.633605
0.64331
0.645559
0.634102
0.604563
0.553493
0.479359
0.386665
0.286215
0.194998
0.125184
0.0511564
0.561506
0.572986
0.577506
0.569331
0.54449
0.499951
0.433919
0.35193
0.264872
0.186422
0.123554
0.0487746
0.489996
0.502444
0.508617
0.503354
0.483785
0.447157
0.390814
0.320449
0.245841
0.17743
0.118612
0.0448296
0.4187
0.431316
0.438556
0.435776
0.42107
0.392558
0.346957
0.287921
0.224421
0.164378
0.10836
0.0390368
0.344981
0.356994
0.364701
0.363816
0.353157
0.332011
0.297787
0.24987
0.196311
0.14389
0.0907189
0.0313618
0.258911
0.269251
0.276576
0.276977
0.26997
0.254708
0.2319
0.198181
0.15397
0.110027
0.0619488
0.0219189
0.116225
0.122225
0.127361
0.129489
0.128117
0.123083
0.114471
0.101761
0.0840766
0.061342
0.037038
0.0142435
0.540709
0.783925
0.818241
0.844475
0.879404
0.919874
0.95999
0.990756
1.0106
1.02054
1.01863
1.00395
0.394083
0.652186
0.708561
0.744387
0.782334
0.823455
0.863126
0.894013
0.914845
0.927098
0.930294
0.92493
0.3194
0.544512
0.608731
0.650409
0.690187
0.730971
0.769689
0.800597
0.822876
0.837576
0.845529
0.847847
0.265482
0.455548
0.519928
0.563702
0.603945
0.643549
0.680749
0.711328
0.734748
0.751637
0.763517
0.77156
0.222179
0.380712
0.441239
0.484681
0.524127
0.56185
0.59697
0.62669
0.650547
0.669132
0.683814
0.695789
0.185164
0.315951
0.371358
0.413104
0.45084
0.486108
0.518685
0.546993
0.570597
0.589999
0.60642
0.620909
0.15335
0.257843
0.308771
0.348283
0.383792
0.416177
0.445855
0.472258
0.495017
0.514451
0.531576
0.547297
0.126083
0.204429
0.251983
0.289262
0.322253
0.351459
0.377977
0.402081
0.423523
0.442356
0.45933
0.475243
0.10144
0.155511
0.199676
0.23481
0.264922
0.290682
0.313814
0.335304
0.355055
0.372794
0.388952
0.404243
0.0780297
0.111287
0.150619
0.182881
0.209125
0.2309
0.250328
0.268927
0.286702
0.30296
0.317691
0.331628
0.0560089
0.0723454
0.102485
0.128292
0.148094
0.164456
0.179249
0.194287
0.209598
0.223823
0.236178
0.247741
0.0246413
0.0300266
0.0441145
0.0567739
0.0657206
0.0725155
0.0784758
0.0847391
0.0915712
0.09814
0.104285
0.110227
0.986499
0.971228
0.953244
0.930323
0.900691
0.863835
0.819969
0.768754
0.707082
0.625069
0.491458
0.294248
0.917139
0.909288
0.896404
0.875005
0.842269
0.796638
0.737032
0.661827
0.566053
0.437476
0.241004
0.0741779
0.847974
0.846359
0.838005
0.818297
0.783534
0.73107
0.658865
0.565404
0.448385
0.307307
0.150649
0.0525834
0.77753
0.78085
0.776638
0.75914
0.724188
0.668417
0.58959
0.487959
0.366928
0.239588
0.130056
0.0513714
0.705895
0.712913
0.712284
0.697589
0.664481
0.609351
0.530315
0.430004
0.316839
0.209077
0.126144
0.0517023
0.63365
0.643358
0.645612
0.63416
0.604623
0.553553
0.479415
0.386715
0.286257
0.19503
0.125207
0.051166
0.561549
0.573031
0.577555
0.569384
0.544545
0.500006
0.433972
0.351977
0.264911
0.186452
0.123575
0.0487836
0.490036
0.502485
0.508662
0.503402
0.483835
0.447208
0.390862
0.320492
0.245878
0.177458
0.118632
0.0448375
0.418737
0.431353
0.438596
0.435819
0.421114
0.392604
0.347001
0.287961
0.224454
0.164404
0.108378
0.0390435
0.345012
0.357026
0.364735
0.363853
0.353195
0.332049
0.297825
0.249904
0.19634
0.143912
0.0907338
0.0313669
0.258935
0.269276
0.276602
0.277005
0.269999
0.254738
0.231929
0.198208
0.153994
0.110044
0.061959
0.0219222
0.116236
0.122237
0.127373
0.129502
0.12813
0.123097
0.114484
0.101773
0.0840879
0.0613504
0.037043
0.0142453
0.540732
0.783952
0.818266
0.844498
0.879423
0.919892
0.960005
0.99077
1.01061
1.02056
1.01864
1.00397
0.394097
0.652205
0.70858
0.744405
0.78235
0.823468
0.863138
0.894024
0.914856
0.927108
0.930304
0.92494
0.31941
0.544527
0.608747
0.650424
0.690201
0.730983
0.769699
0.800607
0.822886
0.837586
0.845539
0.847857
0.265488
0.45556
0.519942
0.563715
0.603957
0.643559
0.680759
0.711338
0.734758
0.751647
0.763528
0.771572
0.222185
0.380722
0.441251
0.484693
0.524139
0.561861
0.596981
0.6267
0.650557
0.669144
0.683826
0.695802
0.185168
0.31596
0.371369
0.413117
0.450852
0.48612
0.518696
0.547004
0.570609
0.590011
0.606433
0.620923
0.153353
0.257851
0.308781
0.348295
0.383804
0.416189
0.445867
0.472269
0.49503
0.514464
0.531589
0.547312
0.126085
0.204436
0.251992
0.289273
0.322265
0.351471
0.377988
0.402093
0.423536
0.442369
0.459345
0.475259
0.101443
0.155517
0.199685
0.234821
0.264933
0.290693
0.313825
0.335316
0.355067
0.372807
0.388966
0.404259
0.0780315
0.111291
0.150626
0.18289
0.209135
0.23091
0.250338
0.268937
0.286714
0.302972
0.317704
0.331642
0.0560102
0.0723483
0.102491
0.1283
0.148102
0.164463
0.179256
0.194295
0.209607
0.223833
0.236189
0.247753
0.0246417
0.0300276
0.0441168
0.0567772
0.0657239
0.0725185
0.0784786
0.084742
0.0915747
0.0981438
0.104289
0.110232
0.98651
0.971238
0.953254
0.930334
0.900704
0.863853
0.819992
0.768783
0.70712
0.625112
0.491499
0.294275
0.917149
0.909299
0.896416
0.875019
0.842286
0.796658
0.737057
0.661855
0.566084
0.437505
0.241016
0.0741796
0.847985
0.846371
0.838019
0.818314
0.783553
0.731092
0.65889
0.565429
0.448408
0.307321
0.150649
0.0525827
0.777542
0.780863
0.776654
0.759159
0.724209
0.66844
0.589613
0.48798
0.366943
0.239594
0.130056
0.0513707
0.705908
0.712928
0.712302
0.697609
0.664504
0.609373
0.530337
0.430021
0.316849
0.209081
0.126144
0.0517018
0.633665
0.643375
0.645631
0.634181
0.604645
0.553575
0.479435
0.38673
0.286266
0.195033
0.125207
0.0511659
0.561565
0.573049
0.577575
0.569405
0.544568
0.500028
0.433991
0.35199
0.26492
0.186456
0.123576
0.0487837
0.490053
0.502503
0.508681
0.503423
0.483857
0.447229
0.39088
0.320505
0.245886
0.177462
0.118634
0.044838
0.418753
0.431371
0.438615
0.435838
0.421135
0.392622
0.347018
0.287973
0.224462
0.164409
0.10838
0.0390441
0.345027
0.357042
0.364752
0.36387
0.353213
0.332066
0.29784
0.249915
0.196348
0.143917
0.0907361
0.0313674
0.258947
0.269289
0.276616
0.277019
0.270014
0.254752
0.231941
0.198218
0.154
0.110048
0.061961
0.0219228
0.116241
0.122242
0.127379
0.129509
0.128136
0.123104
0.11449
0.101778
0.0840919
0.0613531
0.0370445
0.0142459
0.540825
0.784105
0.818435
0.844673
0.879602
0.92007
0.960176
0.990934
1.01077
1.0207
1.01877
1.00408
0.394179
0.652354
0.708747
0.74458
0.782528
0.823646
0.863308
0.894184
0.915006
0.927248
0.93043
0.925049
0.319484
0.544666
0.608907
0.650593
0.690374
0.731155
0.769864
0.80076
0.823027
0.837715
0.845655
0.847957
0.265555
0.455687
0.520091
0.563875
0.604121
0.643722
0.680916
0.711483
0.734891
0.751766
0.763634
0.771662
0.222243
0.380835
0.441387
0.484841
0.524292
0.562013
0.597127
0.626835
0.65068
0.669253
0.683921
0.695882
0.185219
0.316059
0.37149
0.41325
0.450991
0.486259
0.518831
0.547128
0.570721
0.59011
0.606519
0.620993
0.153396
0.257935
0.308887
0.348413
0.383929
0.416314
0.445988
0.472381
0.495131
0.514553
0.531666
0.547375
0.126122
0.204505
0.252082
0.289376
0.322374
0.351582
0.378096
0.402193
0.423626
0.442449
0.459412
0.475314
0.101472
0.155571
0.199759
0.234907
0.265027
0.290789
0.313918
0.335402
0.355145
0.372876
0.389025
0.404307
0.0780536
0.111331
0.150684
0.18296
0.209211
0.230989
0.250415
0.269009
0.286779
0.303029
0.317753
0.331682
0.0560254
0.0723735
0.102532
0.12835
0.148158
0.164522
0.179313
0.194349
0.209655
0.223876
0.236226
0.247783
0.0246478
0.0300364
0.0441352
0.0567996
0.0657493
0.0725451
0.0785047
0.0847666
0.0915971
0.0981639
0.104306
0.110247
0.986611
0.971324
0.953326
0.930393
0.90075
0.863885
0.820008
0.768785
0.707105
0.625087
0.491473
0.294259
0.917241
0.909374
0.896475
0.875064
0.842319
0.796679
0.737065
0.661852
0.566073
0.437492
0.241017
0.074181
0.848068
0.846437
0.838068
0.818348
0.783576
0.731104
0.658893
0.565426
0.448403
0.307322
0.150657
0.0525852
0.777616
0.780921
0.776693
0.759184
0.724224
0.668446
0.589613
0.487978
0.366944
0.239599
0.130062
0.0513728
0.705974
0.712978
0.712334
0.697627
0.664512
0.609375
0.530335
0.43002
0.316851
0.209086
0.126149
0.0517035
0.633722
0.643417
0.645657
0.634194
0.604649
0.553573
0.479432
0.386728
0.286267
0.195036
0.12521
0.0511667
0.561614
0.573085
0.577597
0.569414
0.544569
0.500024
0.433986
0.351988
0.264919
0.186457
0.123577
0.0487841
0.490096
0.502534
0.508699
0.50343
0.483857
0.447224
0.390874
0.320501
0.245884
0.177461
0.118634
0.0448378
0.418791
0.431397
0.43863
0.435844
0.421134
0.392618
0.347011
0.287968
0.224459
0.164406
0.108379
0.0390436
0.345059
0.357064
0.364764
0.363875
0.353212
0.332062
0.297834
0.24991
0.196343
0.143914
0.0907342
0.0313668
0.258971
0.269306
0.276625
0.277022
0.270013
0.254748
0.231936
0.198213
0.153996
0.110045
0.0619591
0.021922
0.116252
0.122251
0.127384
0.12951
0.128136
0.123102
0.114487
0.101776
0.0840888
0.0613506
0.0370427
0.014245
0.540768
0.78401
0.818334
0.844571
0.879501
0.919973
0.960086
0.990851
1.01069
1.02064
1.01872
1.00404
0.394129
0.652262
0.708646
0.744476
0.782426
0.823547
0.863217
0.894101
0.914932
0.927183
0.930379
0.925004
0.319439
0.544579
0.608808
0.650491
0.690273
0.731057
0.769774
0.800679
0.822955
0.837653
0.845606
0.847914
0.265515
0.455607
0.519997
0.563776
0.604023
0.643628
0.680828
0.711404
0.734822
0.751708
0.763588
0.771622
0.222208
0.380763
0.4413
0.484748
0.524198
0.561922
0.597042
0.62676
0.650615
0.669199
0.683879
0.695843
0.185188
0.315994
0.371411
0.413163
0.450903
0.486174
0.518751
0.547057
0.57066
0.590061
0.606482
0.620953
0.15337
0.25788
0.308816
0.348334
0.383847
0.416235
0.445914
0.472316
0.495075
0.514508
0.531631
0.547335
0.1261
0.204459
0.25202
0.289305
0.322301
0.35151
0.378029
0.402133
0.423575
0.442407
0.45938
0.475277
0.101454
0.155534
0.199707
0.234846
0.264962
0.290725
0.313859
0.335349
0.3551
0.372839
0.388994
0.404273
0.0780404
0.111304
0.150643
0.182909
0.209157
0.230936
0.250365
0.268964
0.28674
0.302997
0.317725
0.331653
0.0560165
0.0723566
0.102502
0.128313
0.148118
0.164482
0.179276
0.194316
0.209626
0.223852
0.236205
0.247758
0.0246444
0.0300308
0.044122
0.0567831
0.0657313
0.0725273
0.0784883
0.0847518
0.091584
0.0981528
0.104297
0.110236
)
;

boundaryField
{
    rotor
    {
        type            kqRWallFunction;
        value           nonuniform List<scalar> 
192
(
0.0336445
0.0456599
0.0503957
0.0505468
0.0481891
0.0425175
0.0426982
0.057507
0.159414
0.24551
0.280588
0.300474
0.314213
0.32086
0.323388
0.322494
0.319203
0.308183
0.292995
0.268923
0.239536
0.198755
0.151057
0.117038
0.0336546
0.0456735
0.0504049
0.0505544
0.0481953
0.0425219
0.042701
0.0575031
0.159397
0.24551
0.280596
0.300484
0.314225
0.320874
0.323404
0.32251
0.31922
0.3082
0.293012
0.268938
0.239549
0.198767
0.151067
0.117049
0.0336555
0.0456697
0.050404
0.0505536
0.0481926
0.0425193
0.0427009
0.0575215
0.159464
0.245546
0.280619
0.300508
0.314246
0.320893
0.32342
0.322525
0.319231
0.308209
0.293018
0.268942
0.239552
0.198767
0.151066
0.117047
0.0336577
0.0456748
0.0504092
0.0505591
0.0481992
0.0425254
0.0427059
0.0575194
0.159448
0.245545
0.280623
0.300512
0.314253
0.3209
0.323428
0.322534
0.319241
0.308219
0.293028
0.268951
0.239559
0.198774
0.151072
0.117054
0.0336445
0.0570377
0.0701074
0.0958183
0.111402
0.122345
0.131236
0.140542
0.15483
0.17568
0.210448
0.598184
0.117054
0.276587
0.404646
0.503834
0.591303
0.675645
0.757023
0.850357
0.956398
1.06936
1.20323
1.40084
0.0336546
0.0570382
0.0701023
0.0958085
0.111392
0.122336
0.131235
0.140551
0.15485
0.175709
0.210477
0.598196
0.117038
0.276558
0.404613
0.503792
0.591256
0.67559
0.756961
0.850288
0.956321
1.06928
1.20314
1.40073
0.0336555
0.05705
0.0701221
0.0958353
0.111418
0.12236
0.131246
0.140549
0.15483
0.175674
0.210443
0.598216
0.117049
0.276577
0.404632
0.503814
0.59128
0.675617
0.756991
0.85032
0.956356
1.06932
1.20318
1.40078
0.0336577
0.0570501
0.0701201
0.0958299
0.111412
0.122354
0.131247
0.140555
0.154847
0.1757
0.210471
0.598237
0.117047
0.276576
0.404635
0.503822
0.591292
0.675634
0.757012
0.850347
0.956388
1.06936
1.20323
1.40084
)
;
    }
    stator
    {
        type            kqRWallFunction;
        value           nonuniform List<scalar> 
192
(
0.116225
0.122225
0.127361
0.129489
0.128117
0.123083
0.114471
0.101761
0.0840766
0.061342
0.037038
0.0142435
0.0246413
0.0300266
0.0441145
0.0567739
0.0657206
0.0725155
0.0784758
0.0847391
0.0915712
0.09814
0.104285
0.110227
0.116236
0.122237
0.127373
0.129502
0.12813
0.123097
0.114484
0.101773
0.0840879
0.0613504
0.037043
0.0142453
0.0246417
0.0300276
0.0441168
0.0567772
0.0657239
0.0725185
0.0784786
0.084742
0.0915747
0.0981438
0.104289
0.110232
0.116241
0.122242
0.127379
0.129509
0.128136
0.123104
0.11449
0.101778
0.0840919
0.0613531
0.0370445
0.0142459
0.0246478
0.0300364
0.0441352
0.0567996
0.0657493
0.0725451
0.0785047
0.0847666
0.0915971
0.0981639
0.104306
0.110247
0.116252
0.122251
0.127384
0.12951
0.128136
0.123102
0.114487
0.101776
0.0840888