/*--------------------------------*- C++ -*----------------------------------*\
| =========                 |                                                 |
| \\      /  F ield         | OpenFOAM: The Open Source CFD Toolbox           |
|  \\    /   O peration     | Version:  v1912                                 |
|   \\  /    A nd           | Website:  www.openfoam.com                      |
|    \\/     M anipulation  |                                                 |
\*---------------------------------------------------------------------------*/
FoamFile
{
    version     2.0;
    format      ascii;
    class       volScalarField;
    location    "500";
    object      nut;
}
// * * * * * * * * * * * * * * * * * * * * * * * * * * * * * * * * * * * * * //

dimensions      [0 2 -1 0 0 0 0];


internalField   nonuniform List<scalar> 
3072
(
2.86451e-05
6.11105e-05
6.41881e-05
6.42818e-05
6.27649e-05
5.89559e-05
5.90793e-05
6.85499e-05
0.000114139
0.000141705
0.000151507
0.000156788
4.16584e-05
0.000158558
0.00020482
0.000202996
0.000134448
7.78211e-05
0.000122061
0.000146642
0.000206431
0.000297817
0.000404695
0.000544826
5.10307e-05
0.000206278
0.000268261
0.000249104
0.000216972
0.000191389
0.000237428
0.000364588
0.000530669
0.000743959
0.000962613
0.00116669
6.53471e-05
0.00030404
0.000320076
0.000286754
0.000267397
0.000315276
0.000492699
0.000714415
0.00095828
0.00121614
0.0014575
0.00166802
7.65964e-05
0.000357642
0.000370692
0.000352888
0.00039632
0.000580766
0.000829653
0.0010806
0.00133962
0.00160204
0.00184074
0.00204814
8.6702e-05
0.000413932
0.000465018
0.000493882
0.000649551
0.00089252
0.00114702
0.00140763
0.00166434
0.0019085
0.00212941
0.00232321
9.64663e-05
0.000498439
0.000617358
0.000743648
0.000966134
0.00121564
0.00146471
0.0017089
0.00194659
0.00216531
0.0023613
0.00253317
0.000106738
0.000621756
0.000849456
0.00108056
0.00132457
0.00156043
0.00178341
0.00199303
0.00218901
0.00236586
0.00252406
0.00266345
0.000119287
0.000771967
0.00113182
0.0014119
0.00165133
0.00186066
0.00204218
0.0022043
0.00235004
0.00248135
0.00260084
0.00271048
0.00013478
0.000873798
0.00131463
0.00161859
0.00184513
0.00202933
0.00218519
0.00231897
0.00243397
0.00253567
0.00262786
0.00271314
0.000155937
0.000807947
0.00138182
0.0017201
0.00195849
0.00213909
0.00228301
0.00240244
0.00249575
0.00257497
0.00264482
0.00270878
0.000277036
0.000779804
0.00146028
0.00184693
0.00206931
0.00223825
0.00238309
0.00248317
0.00256035
0.00262133
0.00267195
0.00271645
0.000160337
0.000162029
0.000162669
0.000162447
0.000161618
0.000158808
0.000154846
0.000148351
0.000140013
0.000127539
0.000111189
5.34542e-05
0.000686769
0.000812415
0.000906293
0.000941597
0.000921592
0.000868085
0.000780215
0.000657426
0.000504466
0.000308572
0.00015597
9.18158e-05
0.00133886
0.0014671
0.00154229
0.00156079
0.00152578
0.00144413
0.00130921
0.00112257
0.000882034
0.000590734
0.00026402
0.000122727
0.00184184
0.00197313
0.00205815
0.00209414
0.00207832
0.00200523
0.00186704
0.00165389
0.00135488
0.00096614
0.000472649
0.000149972
0.00222113
0.00235721
0.00245404
0.00250836
0.0025154
0.00246771
0.00235124
0.00214398
0.00180233
0.00132654
0.000695898
0.000176584
0.00248951
0.00262629
0.00273158
0.00280313
0.00283685
0.00282473
0.00274794
0.00257403
0.00225617
0.0017265
0.000981003
0.000203847
0.0026807
0.00280416
0.00290473
0.0029837
0.00304068
0.00306946
0.00305042
0.00294013
0.00266444
0.00212598
0.00127692
0.000231748
0.00278471
0.00288962
0.00298089
0.00306207
0.00313443
0.00319811
0.00323921
0.00321294
0.00302319
0.00251336
0.00157411
0.000262549
0.00280984
0.00290009
0.00298434
0.00306387
0.00314225
0.00322993
0.00332086
0.00338356
0.00331124
0.00287798
0.00184025
0.000296395
0.00279313
0.0028699
0.00294859
0.00303153
0.00311273
0.00319857
0.00331745
0.00345458
0.00351606
0.00322559
0.0021509
0.000332399
0.00277022
0.00283259
0.00290002
0.00298022
0.00308019
0.00316399
0.00327863
0.00344893
0.00362532
0.00353372
0.00252534
0.000372732
0.00276037
0.00280934
0.00286753
0.00293929
0.00304943
0.00314739
0.00325127
0.00342318
0.00365378
0.00374299
0.00296815
0.000423912
2.86489e-05
6.11184e-05
6.4193e-05
6.42859e-05
6.27683e-05
5.89587e-05
5.90811e-05
6.85482e-05
0.000114134
0.000141705
0.000151509
0.00015679
4.16579e-05
0.000158569
0.000204834
0.00020302
0.000134468
7.78329e-05
0.000122046
0.000146625
0.000206406
0.000297789
0.000404666
0.000544801
5.10282e-05
0.000206274
0.000268259
0.000249111
0.000216951
0.000191363
0.000237384
0.000364518
0.0005306
0.00074389
0.000962556
0.00116665
6.53431e-05
0.000304013
0.000320063
0.000286723
0.000267348
0.0003152
0.000492581
0.000714304
0.000958184
0.00121606
0.00145743
0.00166797
7.65921e-05
0.000357618
0.000370647
0.00035283
0.000396223
0.000580578
0.000829521
0.00108047
0.00133951
0.00160195
0.00184066
0.00204808
8.66981e-05
0.000413891
0.000464946
0.000493758
0.000649375
0.000892363
0.00114688
0.0014075
0.00166422
0.0019084
0.00212932
0.00232314
9.64653e-05
0.000498427
0.000617302
0.000743564
0.000966022
0.00121553
0.00146461
0.0017088
0.00194649
0.00216522
0.00236123
0.00253311
0.00010674
0.000621802
0.000849514
0.00108059
0.00132457
0.00156041
0.00178338
0.00199299
0.00218896
0.00236582
0.00252403
0.00266342
0.000119294
0.000772085
0.00113195
0.001412
0.0016514
0.0018607
0.00204221
0.00220432
0.00235005
0.00248136
0.00260085
0.00271049
0.00013479
0.00087391
0.00131474
0.0016187
0.00184524
0.00202944
0.00218529
0.00231906
0.00243405
0.00253574
0.00262792
0.00271319
0.000155947
0.000808012
0.00138191
0.0017202
0.00195862
0.00213922
0.00228315
0.00240258
0.00249588
0.00257509
0.00264493
0.00270888
0.000277039
0.000779833
0.00146034
0.00184701
0.00206943
0.00223837
0.00238323
0.00248332
0.0025605
0.00262148
0.00267209
0.00271659
0.000160341
0.000162032
0.000162673
0.000162451
0.000161623
0.000158812
0.00015485
0.000148355
0.000140017
0.000127543
0.000111193
5.34566e-05
0.000686747
0.000812404
0.00090629
0.000941603
0.000921602
0.000868101
0.000780231
0.000657443
0.000504484
0.000308583
0.000155976
9.18188e-05
0.00133883
0.00146708
0.00154228
0.00156079
0.00152579
0.00144415
0.00130924
0.00112259
0.00088206
0.000590756
0.000264029
0.00012273
0.0018418
0.0019731
0.00205814
0.00209415
0.00207834
0.00200526
0.00186708
0.00165392
0.00135491
0.000966163
0.000472663
0.000149975
0.00222109
0.00235718
0.00245402
0.00250836
0.00251542
0.00246774
0.00235128
0.00214402
0.00180236
0.00132657
0.000695917
0.000176587
0.00248946
0.00262626
0.00273156
0.00280313
0.00283686
0.00282476
0.00274797
0.00257408
0.00225622
0.00172654
0.000981027
0.000203851
0.00268065
0.00280413
0.00290471
0.0029837
0.00304069
0.00306948
0.00305046
0.00294018
0.0026645
0.00212603
0.00127695
0.000231752
0.00278468
0.0028896
0.00298088
0.00306207
0.00313444
0.00319814
0.00323926
0.003213
0.00302326
0.00251342
0.00157415
0.000262554
0.00280985
0.0029001
0.00298435
0.00306388
0.00314227
0.00322997
0.00332093
0.00338364
0.00331132
0.00287805
0.00184029
0.0002964
0.00279318
0.00286994
0.00294863
0.00303157
0.00311278
0.00319863
0.00331753
0.00345468
0.00351617
0.00322569
0.00215095
0.000332405
0.00277032
0.00283268
0.00290011
0.0029803
0.00308028
0.00316409
0.00327873
0.00344905
0.00362545
0.00353384
0.0025254
0.000372739
0.00276051
0.00280947
0.00286766
0.00293941
0.00304956
0.00314752
0.00325141
0.00342333
0.00365393
0.00374313
0.00296823
0.00042392
2.86497e-05
6.11169e-05
6.41936e-05
6.42865e-05
6.27676e-05
5.89577e-05
5.90816e-05
6.8559e-05
0.000114157
0.000141715
0.000151515
0.000156796
4.16632e-05
0.000158578
0.000204823
0.000202978
0.000134407
7.7803e-05
0.000122082
0.000146669
0.000206474
0.000297876
0.00040477
0.000544912
5.10367e-05
0.000206306
0.000268255
0.00024908
0.000216961
0.000191401
0.000237497
0.000364692
0.000530797
0.000744109
0.000962774
0.00116685
6.53536e-05
0.000304061
0.000320062
0.000286762
0.000267429
0.000315359
0.000492871
0.000714597
0.000958472
0.00121634
0.0014577
0.00166822
7.66027e-05
0.000357657
0.000370721
0.000352938
0.000396422
0.000581025
0.000829861
0.00108083
0.00133985
0.00160228
0.00184097
0.00204838
8.6708e-05
0.000413978
0.000465099
0.00049403
0.000649801
0.000892759
0.00114726
0.00140788
0.00166459
0.00190876
0.00212966
0.00232347
9.64707e-05
0.000498487
0.00061747
0.000743831
0.000966364
0.00121588
0.00146495
0.00170915
0.00194686
0.00216558
0.00236157
0.00253343
0.00010674
0.000621779
0.000849536
0.0010807
0.00132475
0.00156064
0.00178364
0.00199328
0.00218927
0.00236613
0.00252433
0.00266372
0.000119287
0.000771949
0.00113187
0.00141199
0.00165147
0.00186083
0.00204238
0.00220452
0.00235028
0.0024816
0.0026011
0.00271074
0.000134777
0.000873778
0.00131466
0.00161866
0.00184524
0.00202947
0.00218536
0.00231916
0.00243419
0.00253591
0.00262811
0.0027134
0.000155934
0.000807945
0.00138186
0.00172016
0.00195857
0.00213919
0.00228315
0.00240262
0.00249595
0.00257519
0.00264505
0.00270902
0.000277043
0.000779838
0.00146033
0.00184699
0.00206939
0.00223835
0.00238322
0.00248332
0.00256053
0.00262153
0.00267217
0.00271668
0.000160346
0.000162037
0.000162677
0.000162455
0.000161626
0.000158814
0.000154852
0.000148356
0.000140018
0.000127543
0.000111192
5.34562e-05
0.000686868
0.000812516
0.000906399
0.000941698
0.000921688
0.000868168
0.000780287
0.000657482
0.000504506
0.000308593
0.000155978
9.18186e-05
0.00133903
0.00146727
0.00154246
0.00156095
0.00152593
0.00144426
0.00130933
0.00112266
0.000882106
0.000590782
0.000264037
0.000122731
0.00184205
0.00197334
0.00205836
0.00209435
0.00207852
0.00200542
0.00186721
0.00165402
0.00135498
0.000966207
0.000472679
0.000149976
0.00222137
0.00235745
0.00245428
0.0025086
0.00251564
0.00246793
0.00235144
0.00214415
0.00180247
0.00132663
0.00069594
0.000176589
0.00248977
0.00262656
0.00273185
0.0028034
0.00283711
0.00282499
0.00274818
0.00257425
0.00225634
0.00172662
0.000981061
0.000203853
0.00268097
0.00280443
0.002905
0.00298398
0.00304096
0.00306974
0.00305069
0.00294038
0.00266465
0.00212613
0.001277
0.000231755
0.00278498
0.00288989
0.00298117
0.00306235
0.00313472
0.00319841
0.00323951
0.00321323
0.00302344
0.00251354
0.0015742
0.000262558
0.00281011
0.00290036
0.00298462
0.00306415
0.00314254
0.00323023
0.00332118
0.00338389
0.00331153
0.0028782
0.00184035
0.000296405
0.00279339
0.00287016
0.00294886
0.00303181
0.00311302
0.00319888
0.00331779
0.00345493
0.00351641
0.00322586
0.00215102
0.00033241
0.00277048
0.00283285
0.00290029
0.0029805
0.00308049
0.0031643
0.00327897
0.0034493
0.00362571
0.00353405
0.00252548
0.000372746
0.00276062
0.00280959
0.00286779
0.00293956
0.00304973
0.0031477
0.00325161
0.00342357
0.00365422
0.00374339
0.00296834
0.000423928
2.86504e-05
6.11198e-05
6.41963e-05
6.42893e-05
6.27713e-05
5.89614e-05
5.90847e-05
6.85578e-05
0.000114152
0.000141715
0.000151516
0.000156798
4.16627e-05
0.000158581
0.000204842
0.000203011
0.000134446
7.78229e-05
0.000122076
0.000146655
0.000206453
0.00029785
0.000404743
0.000544886
5.10353e-05
0.000206305
0.000268276
0.000249114
0.000216975
0.000191398
0.000237449
0.000364626
0.000530729
0.000744041
0.000962715
0.00116681
6.53511e-05
0.000304056
0.000320083
0.000286761
0.000267406
0.000315297
0.000492745
0.000714485
0.000958375
0.00121626
0.00145763
0.00166817
7.66e-05
0.000357655
0.000370702
0.0003529
0.00039634
0.000580816
0.000829721
0.0010807
0.00133974
0.00160218
0.00184089
0.00204831
8.67053e-05
0.000413947
0.000465033
0.000493904
0.000649594
0.000892581
0.00114711
0.00140774
0.00166447
0.00190864
0.00212957
0.00232339
9.64703e-05
0.000498461
0.000617386
0.000743693
0.000966197
0.00121572
0.00146481
0.00170902
0.00194673
0.00216546
0.00236147
0.00253335
0.000106742
0.000621794
0.000849524
0.00108065
0.00132468
0.00156055
0.00178355
0.00199319
0.00218918
0.00236604
0.00252425
0.00266365
0.000119293
0.000772031
0.00113193
0.00141203
0.00165148
0.00186082
0.00204235
0.00220449
0.00235024
0.00248156
0.00260106
0.0027107
0.000134787
0.000873874
0.00131475
0.00161875
0.00184531
0.00202953
0.00218541
0.00231919
0.00243421
0.00253592
0.00262811
0.0027134
0.000155944
0.000808015
0.00138194
0.00172026
0.00195868
0.0021393
0.00228325
0.0024027
0.00249602
0.00257525
0.0026451
0.00270907
0.000277048
0.000779881
0.00146041
0.00184709
0.00206951
0.00223848
0.00238335
0.00248345
0.00256064
0.00262164
0.00267226
0.00271677
0.000160348
0.000162039
0.000162679
0.000162457
0.000161628
0.000158817
0.000154854
0.000148359
0.00014002
0.000127545
0.000111195
5.34577e-05
0.000686844
0.000812499
0.000906387
0.000941692
0.000921683
0.000868169
0.00078029
0.000657487
0.000504515
0.000308598
0.000155981
9.18205e-05
0.00133899
0.00146724
0.00154243
0.00156094
0.00152592
0.00144426
0.00130933
0.00112267
0.000882117
0.000590792
0.000264041
0.000122732
0.001842
0.0019733
0.00205833
0.00209433
0.00207851
0.00200541
0.00186721
0.00165403
0.00135499
0.000966216
0.000472685
0.000149978
0.00222131
0.0023574
0.00245424
0.00250857
0.00251562
0.00246793
0.00235144
0.00214416
0.00180248
0.00132664
0.000695949
0.000176591
0.0024897
0.0026265
0.0027318
0.00280336
0.00283708
0.00282497
0.00274817
0.00257425
0.00225636
0.00172663
0.00098107
0.000203855
0.0026809
0.00280437
0.00290495
0.00298394
0.00304093
0.00306972
0.00305068
0.00294038
0.00266466
0.00212614
0.00127701
0.000231757
0.00278492
0.00288984
0.00298113
0.00306232
0.00313469
0.0031984
0.00323951
0.00321323
0.00302345
0.00251355
0.00157421
0.00026256
0.00281008
0.00290033
0.00298459
0.00306413
0.00314253
0.00323023
0.00332118
0.00338389
0.00331154
0.00287821
0.00184036
0.000296407
0.00279339
0.00287017
0.00294887
0.00303182
0.00311303
0.00319889
0.0033178
0.00345494
0.00351641
0.00322587
0.00215103
0.000332412
0.00277052
0.00283289
0.00290033
0.00298053
0.00308052
0.00316433
0.00327899
0.00344931
0.0036257
0.00353403
0.00252548
0.000372747
0.0027607
0.00280967
0.00286787
0.00293963
0.00304979
0.00314775
0.00325165
0.00342358
0.00365419
0.00374336
0.00296832
0.000423928
0.00172761
0.0018169
0.00196181
0.00212382
0.00227082
0.00239611
0.00250444
0.00257816
0.00263453
0.00267623
0.00270865
0.00273574
0.00285029
0.0026638
0.00259832
0.00258926
0.00260914
0.00263642
0.00266099
0.00268537
0.00271107
0.00272973
0.00274479
0.00275919
0.00361352
0.00337111
0.00318773
0.00305824
0.00296461
0.00290004
0.00285612
0.0028297
0.00281643
0.0028019
0.00279136
0.00279695
0.00388802
0.00369576
0.00349567
0.00331515
0.00317016
0.00305531
0.00296419
0.00289957
0.00286185
0.00284736
0.00285164
0.00287779
0.00276569
0.00280658
0.00286225
0.00293667
0.0030505
0.0031584
0.00326227
0.00343303
0.00366418
0.00392056
0.00391317
0.00182252
0.00278467
0.00282992
0.00289452
0.00298195
0.00309209
0.00320875
0.0033226
0.00348442
0.00369299
0.00393617
0.00433213
0.00319034
0.00283305
0.00289968
0.00298664
0.00308365
0.00319185
0.00331871
0.00344477
0.00359068
0.00376307
0.00394198
0.00431166
0.00389514
0.00294419
0.00305272
0.00315289
0.0032646
0.00338207
0.00350999
0.00363528
0.00376077
0.00388983
0.00400068
0.00422644
0.00408482
0.00172763
0.00181694
0.00196185
0.00212389
0.00227093
0.00239622
0.00250457
0.0025783
0.00263468
0.00267639
0.00270881
0.0027359
0.00285029
0.00266385
0.00259837
0.00258935
0.00260924
0.00263653
0.00266111
0.00268551
0.00271122
0.00272989
0.00274495
0.00275937
0.00361341
0.00337122
0.00318784
0.00305836
0.00296472
0.00290016
0.00285624
0.00282984
0.00281658
0.00280206
0.00279154
0.00279713
0.00388786
0.0036958
0.00349585
0.00331531
0.00317032
0.00305546
0.00296434
0.00289973
0.00286201
0.00284753
0.00285182
0.00287798
0.00276585
0.00280674
0.00286242
0.00293683
0.00305066
0.00315857
0.00326244
0.0034332
0.00366435
0.00392074
0.00391331
0.00182258
0.00278485
0.00283011
0.00289471
0.00298214
0.00309228
0.00320894
0.00332279
0.00348462
0.00369318
0.00393637
0.00433231
0.00319046
0.00283324
0.00289988
0.00298684
0.00308386
0.00319206
0.00331892
0.00344497
0.00359088
0.00376328
0.00394218
0.00431185
0.00389529
0.00294438
0.00305292
0.0031531
0.0032648
0.00338227
0.00351018
0.00363548
0.00376096
0.00389003
0.00400087
0.00422663
0.00408498
0.0017277
0.00181701
0.00196192
0.00212394
0.00227094
0.00239625
0.00250458
0.00257832
0.00263471
0.00267642
0.00270886
0.00273596
0.00285042
0.00266395
0.00259848
0.00258942
0.00260931
0.00263659
0.00266116
0.00268555
0.00271126
0.00272992
0.00274499
0.00275941
0.00361355
0.00337135
0.00318796
0.00305846
0.00296482
0.00290025
0.00285632
0.0028299
0.00281662
0.00280209
0.00279157
0.00279716
0.00388801
0.00369593
0.00349597
0.00331542
0.00317041
0.00305555
0.00296442
0.00289979
0.00286205
0.00284756
0.00285186
0.00287802
0.00276592
0.00280683
0.00286251
0.00293696
0.0030508
0.00315873
0.00326263
0.00343345
0.00366465
0.00392105
0.00391349
0.00182263
0.0027849
0.00283016
0.00289479
0.00298225
0.00309241
0.0032091
0.003323
0.00348487
0.00369349
0.00393673
0.00433261
0.00319061
0.00283329
0.00289995
0.00298694
0.00308398
0.00319223
0.00331913
0.00344521
0.00359118
0.00376362
0.00394256
0.00431225
0.00389558
0.00294447
0.00305305
0.00315327
0.00326502
0.00338253
0.00351048
0.0036358
0.00376132
0.00389041
0.00400128
0.00422705
0.00408534
0.00172772
0.00181705
0.00196199
0.00212403
0.00227106
0.00239638
0.00250472
0.00257846
0.00263484
0.00267655
0.00270898
0.00273608
0.00285053
0.00266405
0.00259859
0.00258954
0.00260944
0.00263673
0.00266131
0.0026857
0.00271141
0.00273007
0.00274513
0.00275954
0.00361379
0.00337155
0.00318813
0.00305862
0.00296498
0.00290041
0.00285648
0.00283006
0.00281678
0.00280225
0.00279171
0.00279731
0.00388832
0.00369619
0.00349619
0.00331561
0.00317059
0.00305572
0.00296458
0.00289995
0.0028622
0.0028477
0.00285198
0.00287814
0.00276603
0.00280693
0.00286261
0.00293704
0.00305087
0.00315879
0.00326267
0.00343344
0.00366461
0.00392098
0.00391344
0.00182263
0.00278503
0.00283029
0.0028949
0.00298233
0.00309248
0.00320914
0.003323
0.00348483
0.00369341
0.00393662
0.00433249
0.00319054
0.00283342
0.00290006
0.00298701
0.00308403
0.00319224
0.00331911
0.00344517
0.00359109
0.0037635
0.00394242
0.00431206
0.00389545
0.00294453
0.00305308
0.00315325
0.00326497
0.00338245
0.00351038
0.00363568
0.00376117
0.00389024
0.00400111
0.00422683
0.00408517
0.00375357
0.00355892
0.00337152
0.00320666
0.00307283
0.00296795
0.0028907
0.00284271
0.00282619
0.00284121
0.00289717
0.0030084
0.00366434
0.00347534
0.00329722
0.00313802
0.00300293
0.00289178
0.00280665
0.00274746
0.00271563
0.00271236
0.00275394
0.00287101
0.00360112
0.0034224
0.00325061
0.00308931
0.00294205
0.00281023
0.00269553
0.00259064
0.00249358
0.0024051
0.00233855
0.0023627
0.00354779
0.00338334
0.00321796
0.00305166
0.00288539
0.00272182
0.00255709
0.00238436
0.00218748
0.00195789
0.00169473
0.00148088
0.00314722
0.00334897
0.00348265
0.00359438
0.00370489
0.00381241
0.0039048
0.00398412
0.00404787
0.00409005
0.0041078
0.00396273
0.00305489
0.00344325
0.00362166
0.00373568
0.00384038
0.00393165
0.00400462
0.0040549
0.0040773
0.00407494
0.00402819
0.00386165
0.00255818
0.00333189
0.0036208
0.0037579
0.00386608
0.00394878
0.00401102
0.00404091
0.00404372
0.00402341
0.00394766
0.00378361
0.0015317
0.00297209
0.00349874
0.00369818
0.00381791
0.00389946
0.00395599
0.00397614
0.00397248
0.00394524
0.00386445
0.00371356
0.00375359
0.00355905
0.00337172
0.00320684
0.00307301
0.00296812
0.00289086
0.00284287
0.00282635
0.00284138
0.00289734
0.00300857
0.00366445
0.00347552
0.00329743
0.00313823
0.00300312
0.00289196
0.00280681
0.00274761
0.00271578
0.0027125
0.00275408
0.00287116
0.00360127
0.0034226
0.00325084
0.00308953
0.00294225
0.00281041
0.00269569
0.00259079
0.00249371
0.00240522
0.00233865
0.00236281
0.00354796
0.00338356
0.0032182
0.00305189
0.0028856
0.00272201
0.00255726
0.00238451
0.0021876
0.00195799
0.0016948
0.00148093
0.0031474
0.00334916
0.00348284
0.00359457
0.00370507
0.00381259
0.00390498
0.0039843
0.00404804
0.00409022
0.00410797
0.00396287
0.00305504
0.00344342
0.00362183
0.00373586
0.00384055
0.00393183
0.00400479
0.00405506
0.00407746
0.0040751
0.00402833
0.00386178
0.00255828
0.00333204
0.00362096
0.00375807
0.00386625
0.00394895
0.00401118
0.00404106
0.00404387
0.00402355
0.00394779
0.00378372
0.00153176
0.00297221
0.00349889
0.00369834
0.00381807
0.00389962
0.00395614
0.00397628
0.00397262
0.00394537
0.00386456
0.00371366
0.00375372
0.00355916
0.00337182
0.00320693
0.00307308
0.00296818
0.00289092
0.00284291
0.00282639
0.00284144
0.00289741
0.00300869
0.00366455
0.00347561
0.00329751
0.00313829
0.00300318
0.00289201
0.00280686
0.00274765
0.00271581
0.00271258
0.00275416
0.0028713
0.00360136
0.00342268
0.0032509
0.00308958
0.00294229
0.00281045
0.00269573
0.00259081
0.00249376
0.00240529
0.00233869
0.0023629
0.00354804
0.00338362
0.00321825
0.00305193
0.00288564
0.00272204
0.00255729
0.00238452
0.00218763
0.00195803
0.00169483
0.00148097
0.0031476
0.0033494
0.00348314
0.00359491
0.00370544
0.00381298
0.00390538
0.00398471
0.00404846
0.00409063
0.00410836
0.00396322
0.00305527
0.00344374
0.00362223
0.00373629
0.003841
0.00393229
0.00400524
0.00405551
0.0040779
0.00407551
0.00402872
0.00386212
0.00255849
0.00333238
0.00362141
0.00375857
0.00386677
0.00394946
0.00401167
0.00404153
0.00404432
0.00402398
0.00394817
0.00378406
0.00153186
0.00297254
0.00349938
0.00369889
0.00381863
0.00390017
0.00395665
0.00397677
0.00397309
0.00394581
0.00386494
0.003714
0.00375401
0.00355941
0.00337203
0.00320712
0.00307326
0.00296835
0.00289107
0.00284305
0.0028265
0.00284151
0.00289747
0.0030087
0.00366485
0.00347586
0.00329773
0.00313849
0.00300336
0.00289216
0.00280699
0.00274776
0.00271589
0.0027126
0.00275417
0.00287125
0.00360166
0.00342293
0.00325111
0.00308978
0.00294246
0.00281059
0.00269584
0.00259091
0.0024938
0.00240529
0.00233871
0.00236286
0.00354834
0.00338387
0.00321846
0.00305211
0.00288579
0.00272218
0.00255739
0.00238462
0.00218768
0.00195804
0.00169483
0.00148095
0.00314753
0.00334931
0.00348301
0.00359475
0.00370526
0.00381279
0.00390518
0.00398451
0.00404826
0.00409045
0.00410819
0.0039631
0.00305516
0.00344357
0.00362201
0.00373605
0.00384075
0.00393203
0.004005
0.00405528
0.00407768
0.00407531
0.00402857
0.003862
0.00255837
0.00333217
0.00362113
0.00375826
0.00386646
0.00394916
0.00401139
0.00404128
0.00404408
0.00402377
0.00394803
0.00378394
0.0015318
0.00297232
0.00349906
0.00369853
0.00381827
0.00389983
0.00395635
0.00397649
0.00397283
0.00394558
0.0038648
0.00371387
0.00349327
0.00334712
0.0031903
0.00301926
0.00283351
0.00263854
0.00242383
0.00217867
0.00188146
0.00149304
0.000915614
0.000284015
0.00342923
0.00330334
0.00315896
0.00298701
0.00278972
0.00257148
0.00231913
0.00202335
0.00166923
0.00123243
0.000628068
0.000147625
0.00334831
0.00324376
0.00311623
0.00294952
0.00275083
0.00252175
0.0022499
0.00193041
0.00156174
0.00115657
0.000639864
0.000128516
0.00324575
0.00316217
0.00305475
0.00289981
0.0027091
0.00248163
0.00220773
0.00188849
0.00153659
0.00118801
0.00074055
0.000131191
0.00311824
0.00305397
0.00296708
0.00282948
0.00265399
0.00243803
0.00217499
0.00187075
0.0015441
0.0012125
0.000796898
0.00013579
0.00295869
0.00291264
0.00284452
0.00272819
0.00257293
0.00237499
0.0021299
0.00184496
0.0015352
0.00119553
0.000798052
0.000139239
0.00275548
0.00272652
0.00267575
0.00258197
0.00245025
0.00227373
0.00204937
0.00178268
0.00148192
0.00113515
0.000755341
0.000140015
0.00248861
0.00247576
0.00244121
0.00236936
0.00226312
0.00211033
0.00190871
0.00165966
0.00136768
0.00103059
0.000670262
0.000138121
0.00212508
0.00212634
0.00210762
0.00205627
0.00197322
0.00184864
0.00167882
0.00145018
0.00117505
0.000868025
0.000545261
0.000132516
0.00161193
0.00162311
0.0016182
0.00158561
0.00152424
0.00143452
0.00131295
0.00112052
0.000888081
0.000638518
0.000378787
0.000122027
0.000881845
0.000893709
0.000897122
0.000882366
0.000850714
0.000802423
0.000741124
0.000635161
0.000481635
0.000334012
0.000177467
0.00010473
9.53158e-05
9.77425e-05
9.9774e-05
0.000100605
0.000100071
9.80868e-05
9.45929e-05
8.91867e-05
8.10676e-05
6.92438e-05
5.38035e-05
3.33625e-05
0.00038512
0.00245449
0.00329618
0.00358034
0.00371613
0.00380236
0.00385893
0.0038778
0.00387164
0.0038446
0.00377163
0.00364047
0.000340356
0.00219408
0.00308064
0.00342181
0.00357363
0.00366762
0.00372986
0.00375303
0.00374881
0.00372453
0.00366334
0.00355578
0.000316823
0.00198354
0.00285779
0.00323059
0.00339888
0.0035019
0.00357237
0.00360327
0.00360798
0.0035886
0.00353806
0.0034513
0.000298333
0.00178894
0.0026274
0.00301408
0.00319706
0.00330894
0.00338761
0.00342817
0.00344396
0.00343299
0.00339472
0.00332734
0.000281597
0.00159831
0.00238686
0.0027766
0.00297021
0.00308929
0.00317429
0.00322544
0.00325148
0.00325242
0.00322841
0.00317998
0.000264991
0.00140117
0.0021336
0.00251854
0.00271709
0.00284009
0.00292942
0.00298985
0.00302611
0.00303953
0.00303104
0.00300186
0.000248359
0.00118049
0.00186221
0.00223727
0.00243274
0.00255457
0.00264549
0.00271304
0.00275915
0.00278472
0.00279098
0.00277989
0.000231731
0.000940345
0.00156752
0.00192746
0.00210719
0.00222033
0.00230867
0.00238031
0.00243468
0.00247099
0.00249024
0.00249506
0.000213713
0.000706781
0.00125089
0.00157648
0.00172271
0.00181705
0.00189656
0.00196742
0.00202642
0.00207026
0.00209924
0.00211653
0.000192571
0.000495365
0.000910013
0.00115144
0.00123886
0.00130207
0.0013655
0.00143055
0.00149063
0.00153892
0.00157115
0.00159448
0.000167498
0.000302711
0.000513372
0.000606276
0.000633885
0.000663515
0.000699744
0.000742769
0.000787525
0.000825495
0.00084882
0.000866622
4.39054e-05
4.8475e-05
5.87784e-05
6.66758e-05
7.17321e-05
7.53404e-05
7.83633e-05
8.14181e-05
8.46263e-05
8.76009e-05
9.02951e-05
9.28276e-05
0.00349347
0.00334735
0.00319055
0.00301951
0.00283374
0.00263875
0.00242401
0.00217882
0.00188158
0.00149313
0.000915653
0.000284023
0.00342945
0.00330358
0.00315922
0.00298726
0.00278996
0.0025717
0.00231933
0.00202351
0.00166936
0.00123253
0.000628126
0.000147635
0.00334852
0.00324399
0.00311648
0.00294978
0.00275108
0.00252199
0.00225011
0.00193059
0.00156189
0.0011567
0.000639949
0.000128528
0.00324597
0.0031624
0.003055
0.00290007
0.00270935
0.00248186
0.00220795
0.00188869
0.00153676
0.00118815
0.000740644
0.000131204
0.00311847
0.0030542
0.00296732
0.00282974
0.00265424
0.00243827
0.00217521
0.00187095
0.00154428
0.00121264
0.000796998
0.000135802
0.00295892
0.00291286
0.00284474
0.00272843
0.00257317
0.00237522
0.00213012
0.00184515
0.00153537
0.00119567
0.000798151
0.000139251
0.00275569
0.00272672
0.00267597
0.00258219
0.00245048
0.00227395
0.00204957
0.00178286
0.00148209
0.00113528
0.000755437
0.000140027
0.0024888
0.00247594
0.0024414
0.00236955
0.00226331
0.00211052
0.0019089
0.00165983
0.00136783
0.00103071
0.000670346
0.000138133
0.00212524
0.00212649
0.00210778
0.00205643
0.00197338
0.0018488
0.00167898
0.00145032
0.00117518
0.000868123
0.000545328
0.000132527
0.00161203
0.00162321
0.0016183
0.00158572
0.00152435
0.00143464
0.00131306
0.00112063
0.000888174
0.000638589
0.000378833
0.000122037
0.000881908
0.00089376
0.000897173
0.00088242
0.000850771
0.000802481
0.000741181
0.000635219
0.000481687
0.000334049
0.000177489
0.000104737
9.532e-05
9.77471e-05
9.97786e-05
0.00010061
0.000100076
9.80921e-05
9.45983e-05
8.91919e-05
8.10728e-05
6.92484e-05
5.3807e-05
3.33644e-05
0.000385128
0.00245456
0.00329631
0.00358049
0.00371629
0.00380252
0.00385908
0.00387794
0.00387178
0.00384473
0.00377174
0.00364056
0.000340361
0.00219414
0.00308075
0.00342195
0.00357378
0.00366778
0.00373001
0.00375318
0.00374894
0.00372465
0.00366344
0.00355587
0.000316827
0.00198359
0.00285789
0.00323073
0.00339903
0.00350206
0.00357252
0.00360341
0.00360811
0.00358872
0.00353816
0.00345138
0.000298336
0.00178899
0.0026275
0.00301422
0.00319721
0.00330909
0.00338776
0.00342831
0.00344409
0.00343311
0.00339482
0.00332742
0.0002816
0.00159835
0.00238696
0.00277672
0.00297035
0.00308943
0.00317443
0.00322557
0.0032516
0.00325254
0.00322851
0.00318006
0.000264994
0.00140121
0.00213369
0.00251866
0.00271722
0.00284023
0.00292955
0.00298997
0.00302622
0.00303964
0.00303114
0.00300195
0.000248362
0.00118053
0.0018623
0.00223737
0.00243286
0.00255469
0.0026456
0.00271315
0.00275925
0.00278482
0.00279107
0.00277997
0.000231734
0.00094038
0.00156759
0.00192755
0.00210729
0.00222043
0.00230876
0.0023804
0.00243477
0.00247107
0.00249032
0.00249513
0.000213715
0.000706811
0.00125096
0.00157656
0.00172278
0.00181712
0.00189663
0.00196749
0.00202649
0.00207033
0.0020993
0.00211659
0.000192574
0.000495388
0.000910061
0.00115149
0.0012389
0.00130211
0.00136554
0.0014306
0.00149068
0.00153897
0.0015712
0.00159453
0.0001675
0.000302723
0.000513396
0.000606296
0.000633901
0.00066353
0.000699758
0.000742788
0.000787547
0.000825519
0.000848845
0.000866646
4.39057e-05
4.84758e-05
5.87798e-05
6.66776e-05
7.17338e-05
7.53419e-05
7.83645e-05
8.14194e-05
8.46278e-05
8.76025e-05
9.02969e-05
9.28295e-05
0.00349354
0.0033474
0.00319059
0.00301954
0.00283376
0.00263877
0.00242402
0.00217882
0.00188159
0.00149314
0.000915665
0.000284035
0.00342952
0.00330362
0.00315925
0.00298729
0.00278997
0.0025717
0.00231933
0.0020235
0.00166936
0.00123252
0.00062811
0.000147637
0.00334858
0.00324403
0.00311652
0.00294981
0.00275109
0.00252198
0.0022501
0.00193058
0.00156187
0.00115667
0.000639918
0.000128527
0.00324603
0.00316244
0.00305504
0.00290011
0.00270936
0.00248186
0.00220794
0.00188867
0.00153673
0.00118812
0.000740618
0.000131203
0.00311853
0.00305424
0.00296736
0.00282977
0.00265426
0.00243827
0.0021752
0.00187093
0.00154425
0.00121262
0.000796978
0.000135802
0.00295898
0.00291291
0.00284479
0.00272847
0.00257319
0.00237523
0.00213012
0.00184514
0.00153536
0.00119565
0.000798136
0.000139252
0.00275576
0.00272677
0.00267602
0.00258223
0.00245051
0.00227397
0.00204958
0.00178286
0.00148208
0.00113527
0.000755425
0.000140028
0.00248886
0.00247599
0.00244145
0.0023696
0.00226335
0.00211055
0.00190892
0.00165984
0.00136783
0.00103071
0.000670338
0.000138134
0.00212529
0.00212654
0.00210782
0.00205647
0.00197342
0.00184884
0.001679
0.00145034
0.00117519
0.000868126
0.000545322
0.000132528
0.00161207
0.00162325
0.00161834
0.00158576
0.00152439
0.00143467
0.00131309
0.00112065
0.000888187