/*--------------------------------*- C++ -*----------------------------------*\
| =========                 |                                                 |
| \\      /  F ield         | OpenFOAM: The Open Source CFD Toolbox           |
|  \\    /   O peration     | Version:  v1912                                 |
|   \\  /    A nd           | Website:  www.openfoam.com                      |
|    \\/     M anipulation  |                                                 |
\*---------------------------------------------------------------------------*/
FoamFile
{
    version     2.0;
    format      ascii;
    class       volScalarField;
    location    "500";
    object      p;
}
// * * * * * * * * * * * * * * * * * * * * * * * * * * * * * * * * * * * * * //

dimensions      [0 2 -2 0 0 0 0];


internalField   nonuniform List<scalar> 
3072
(
-3.89997e-05
-0.109506
-0.209936
-0.277574
-0.311806
-0.295977
-0.253938
-0.195825
-0.0824044
0.109324
0.0762288
-0.146844
0.672509
0.483904
0.356794
0.285107
0.276586
0.354576
0.58218
0.812197
1.32416
2.00084
2.32436
2.49477
1.36326
1.07768
0.945172
0.925758
1.02384
1.25316
1.6867
2.13472
2.53464
2.90998
3.15117
3.3366
2.24871
1.97036
1.89548
1.97461
2.24578
2.67561
3.14685
3.5789
3.95389
4.26935
4.4961
4.67975
3.25458
3.0827
3.1034
3.30559
3.68531
4.14122
4.58188
4.96798
5.30126
5.56792
5.76497
5.91786
4.32374
4.26735
4.39774
4.69926
5.11564
5.54775
5.9383
6.26994
6.5419
6.75727
6.92078
7.0462
5.39189
5.46668
5.69268
6.0552
6.47194
6.86714
7.20436
7.47943
7.69815
7.86811
7.99676
8.09398
6.45312
6.68222
6.97524
7.36325
7.75536
8.09978
8.37984
8.59957
8.76807
8.89492
8.98909
9.05892
7.51913
7.92403
8.25606
8.63646
8.98088
9.26185
9.47749
9.63778
9.75445
9.83829
9.89866
9.94241
8.61956
9.16085
9.51624
9.86775
10.1494
10.3523
10.4932
10.5886
10.6516
10.6931
10.7217
10.742
9.76528
10.4666
10.7799
11.0218
11.2122
11.3247
11.3871
11.4197
11.4344
11.4407
11.445
11.4485
10.7865
11.7875
11.9714
12.0224
12.0904
12.1115
12.1067
12.0917
12.0748
12.062
12.0566
12.0551
-0.36198
-0.502597
-0.471504
-0.309625
-0.00763922
0.39202
0.880026
1.38294
1.83804
2.18354
2.33369
2.20641
2.58549
2.65849
2.69811
2.75219
2.82517
2.93197
3.04687
3.16482
3.25928
3.40484
3.35745
2.70082
3.46303
3.5515
3.62831
3.71398
3.80696
3.89607
3.97527
4.01696
3.99007
3.96487
3.82128
2.86293
4.81713
4.92066
5.00026
5.06118
5.09997
5.11468
5.10037
5.02469
4.86639
4.67199
4.39816
3.16807
6.02949
6.10897
6.16256
6.194
6.20211
6.18255
6.12437
6.01332
5.81986
5.54152
5.20997
3.77817
7.13804
7.20239
7.24312
7.26212
7.25835
7.22802
7.16095
7.0441
6.85351
6.56537
6.21946
4.79505
8.1648
8.2138
8.24407
8.25722
8.25293
8.22878
8.17853
8.09152
7.94897
7.72602
7.45055
6.16906
9.10962
9.14499
9.16811
9.18098
9.18454
9.17839
9.1599
9.12393
9.06272
8.95732
8.84197
7.89578
9.97439
9.99743
10.0149
10.0295
10.0444
10.0614
10.0815
10.1071
10.145
10.1962
10.3271
9.90672
10.7577
10.7701
10.7827
10.7986
10.8234
10.8629
10.9205
11.006
11.14
11.354
11.8389
12.1363
11.4538
11.4589
11.4683
11.4847
11.515
11.5695
11.655
11.7867
11.9918
12.3393
13.2196
14.3953
12.0596
12.0622
12.071
12.0874
12.118
12.1754
12.2696
12.4197
12.6442
13.0338
14.015
15.8845
-5.62143e-05
-0.109538
-0.209982
-0.277619
-0.311851
-0.296025
-0.253985
-0.195885
-0.0824672
0.109252
0.0761752
-0.146885
0.672474
0.483855
0.356748
0.285057
0.276538
0.354494
0.582035
0.812083
1.32395
2.00079
2.32433
2.49473
1.36323
1.07762
0.94509
0.925651
1.02369
1.25298
1.68647
2.13452
2.53444
2.90975
3.15103
3.33649
2.24865
1.97024
1.8953
1.97438
2.24549
2.67532
3.14661
3.57873
3.95378
4.26929
4.49602
4.67968
3.2545
3.08254
3.10318
3.30529
3.68501
4.14097
4.5817
4.96785
5.30118
5.56787
5.76492
5.91782
4.32368
4.26721
4.39754
4.69903
5.11543
5.5476
5.9382
6.26988
6.54186
6.75724
6.92075
7.04617
5.39186
5.46657
5.69254
6.05505
6.47182
6.86706
7.20433
7.47941
7.69814
7.86811
7.99675
8.09397
6.45312
6.68215
6.97515
7.36316
7.7553
8.09975
8.37984
8.59958
8.76808
8.89493
8.98909
9.05892
7.51914
7.92399
8.256
8.63641
8.98085
9.26184
9.4775
9.6378
9.75447
9.8383
9.89867
9.94241
8.61956
9.16082
9.51621
9.86773
10.1494
10.3523
10.4933
10.5886
10.6516
10.6931
10.7217
10.742
9.76528
10.4666
10.7799
11.0218
11.2122
11.3248
11.3871
11.4197
11.4344
11.4407
11.445
11.4485
10.7865
11.7875
11.9714
12.0224
12.0904
12.1115
12.1067
12.0917
12.0749
12.062
12.0566
12.0551
-0.362047
-0.502698
-0.471621
-0.309752
-0.00775754
0.391919
0.879952
1.38289
1.83803
2.18358
2.33377
2.20646
2.58544
2.65844
2.69805
2.75214
2.82512
2.93193
3.04685
3.16481
3.25928
3.4049
3.35749
2.70083
3.46295
3.55143
3.62825
3.71393
3.80691
3.89603
3.97524
4.01694
3.99005
3.96486
3.82128
2.86289
4.81707
4.9206
5.00021
5.06114
5.09993
5.11464
5.10035
5.02467
4.86637
4.67197
4.39813
3.168
6.02946
6.10893
6.16253
6.19397
6.20208
6.18252
6.12434
6.01329
5.81983
5.54148
5.20993
3.7781
7.13801
7.20236
7.2431
7.2621
7.25833
7.228
7.16093
7.04408
6.85348
6.56534
6.21943
4.79498
8.16479
8.21379
8.24406
8.2572
8.25292
8.22876
8.17851
8.0915
7.94895
7.72599
7.45053
6.16901
9.10962
9.14498
9.1681
9.18097
9.18453
9.17838
9.15988
9.12391
9.0627
8.95731
8.84197
7.89576
9.97439
9.99742
10.0149
10.0295
10.0444
10.0614
10.0815
10.1071
10.145
10.1962
10.3271
9.90674
10.7577
10.7701
10.7827
10.7985
10.8234
10.8629
10.9205
11.006
11.14
11.354
11.839
12.1363
11.4538
11.4589
11.4683
11.4846
11.515
11.5695
11.655
11.7867
11.9918
12.3394
13.2196
14.3954
12.0595
12.0622
12.071
12.0874
12.118
12.1754
12.2696
12.4197
12.6442
13.0338
14.0151
15.8846
-4.38235e-05
-0.10954
-0.209997
-0.27765
-0.311888
-0.296059
-0.254029
-0.195901
-0.082471
0.109297
0.0761659
-0.146953
0.67248
0.483843
0.356726
0.285036
0.276515
0.354554
0.582231
0.812214
1.32435
2.00084
2.32436
2.49479
1.36327
1.07768
0.94519
0.925803
1.02392
1.25329
1.68692
2.13493
2.53487
2.91025
3.15134
3.33673
2.24879
1.97049
1.89566
1.97485
2.2461
2.67593
3.14711
3.5791
3.95403
4.26945
4.49622
4.67986
3.25471
3.08291
3.10368
3.30594
3.68568
4.14154
4.58213
4.96817
5.3014
5.56802
5.76508
5.91797
4.32386
4.26756
4.39802
4.69959
5.11595
5.54799
5.93849
6.27008
6.54202
6.75737
6.92088
7.04629
5.39196
5.46686
5.69292
6.05546
6.47216
6.86731
7.2045
7.47954
7.69824
7.86819
7.99684
8.09406
6.45315
6.68235
6.97542
7.36343
7.75551
8.0999
8.37993
8.59964
8.76814
8.89499
8.98916
9.05899
7.51914
7.92413
8.25619
8.63659
8.98098
9.26193
9.47755
9.63783
9.7545
9.83834
9.89872
9.94247
8.61956
9.16093
9.51633
9.86784
10.1494
10.3523
10.4933
10.5886
10.6517
10.6932
10.7218
10.742
9.76529
10.4666
10.78
11.0218
11.2123
11.3248
11.3871
11.4197
11.4344
11.4407
11.4451
11.4485
10.7865
11.7876
11.9715
12.0225
12.0904
12.1115
12.1067
12.0917
12.0748
12.062
12.0566
12.0551
-0.362068
-0.502646
-0.471518
-0.309605
-0.00759048
0.392094
0.880119
1.38304
1.83816
2.18369
2.33386
2.20656
2.58553
2.65854
2.69817
2.75228
2.82527
2.93208
3.04699
3.16495
3.25941
3.405
3.35759
2.70095
3.46313
3.55159
3.6284
3.71408
3.80706
3.89618
3.97538
4.01708
3.99019
3.96499
3.8214
2.86303
4.81723
4.92076
5.00036
5.06129
5.10008
5.11479
5.10049
5.02481
4.86651
4.67212
4.39827
3.16817
6.02959
6.10907
6.16266
6.1941
6.20221
6.18265
6.12448
6.01344
5.81998
5.54164
5.21009
3.77829
7.13813
7.20248
7.24322
7.26222
7.25845
7.22812
7.16106
7.04422
6.85363
6.5655
6.2196
4.79518
8.16489
8.21389
8.24416
8.25731
8.25303
8.22888
8.17864
8.09163
7.9491
7.72616
7.4507
6.16922
9.1097
9.14507
9.16819
9.18107
9.18463
9.17848
9.16
9.12404
9.06284
8.95746
8.84214
7.89596
9.97446
9.9975
10.0149
10.0296
10.0445
10.0615
10.0816
10.1072
10.1452
10.1963
10.3273
9.90693
10.7578
10.7702
10.7827
10.7986
10.8235
10.8629
10.9206
11.0061
11.1401
11.3541
11.8391
12.1365
11.4539
11.4589
11.4684
11.4847
11.515
11.5696
11.6551
11.7868
11.9919
12.3395
13.2198
14.3956
12.0596
12.0622
12.0711
12.0875
12.118
12.1755
12.2696
12.4198
12.6442
13.0339
14.0152
15.8847
-7.60802e-05
-0.109576
-0.21004
-0.277692
-0.311931
-0.296105
-0.254073
-0.19596
-0.0825288
0.109235
0.0761146
-0.14701
0.672438
0.483793
0.35667
0.284974
0.276456
0.354466
0.582087
0.812108
1.32416
2.0008
2.32432
2.49474
1.36321
1.0776
0.945075
0.925663
1.02375
1.2531
1.68668
2.13472
2.53467
2.91003
3.15119
3.3366
2.2487
1.97033
1.89544
1.97458
2.24577
2.67561
3.14686
3.57892
3.9539
4.26936
4.49612
4.67977
3.25459
3.0827
3.10341
3.3056
3.68534
4.14126
4.58193
4.96802
5.3013
5.56795
5.76501
5.9179
4.32376
4.26737
4.39777
4.6993
5.1157
5.54782
5.93837
6.27
6.54196
6.75732
6.92082
7.04625
5.39191
5.46671
5.69272
6.05526
6.47201
6.86722
7.20444
7.4795
7.69822
7.86817
7.99682
8.09403
6.45313
6.68225
6.97529
7.36331
7.75543
8.09986
8.37992
8.59965
8.76814
8.89499
8.98915
9.05897
7.51913
7.92406
8.2561
8.63652
8.98095
9.26192
9.47756
9.63785
9.75452
9.83835
9.89872
9.94246
8.61955
9.16088
9.51628
9.86781
10.1494
10.3523
10.4933
10.5886
10.6517
10.6932
10.7218
10.742
9.76527
10.4666
10.78
11.0218
11.2123
11.3248
11.3872
11.4197
11.4345
11.4407
11.4451
11.4485
10.7865
11.7875
11.9715
12.0225
12.0905
12.1115
12.1067
12.0917
12.0749
12.062
12.0566
12.0551
-0.362157
-0.502776
-0.471666
-0.309765
-0.00774406
0.391954
0.880004
1.38296
1.8381
2.18367
2.33386
2.20654
2.58546
2.65846
2.69809
2.75218
2.82518
2.93199
3.04692
3.16489
3.25936
3.40499
3.35757
2.70091
3.46303
3.55149
3.6283
3.71398
3.80696
3.8961
3.97531
4.01701
3.99013
3.96493
3.82135
2.86295
4.81714
4.92067
5.00028
5.06121
5.1
5.11471
5.10042
5.02473
4.86644
4.67204
4.3982
3.16807
6.02953
6.109
6.16259
6.19403
6.20214
6.18258
6.12441
6.01336
5.8199
5.54155
5.21
3.77817
7.13808
7.20243
7.24316
7.26215
7.25839
7.22806
7.16099
7.04415
6.85355
6.56542
6.2195
4.79507
8.16485
8.21384
8.24412
8.25725
8.25297
8.22882
8.17857
8.09156
7.94902
7.72607
7.45061
6.16911
9.10967
9.14504
9.16815
9.18102
9.18458
9.17843
9.15994
9.12397
9.06277
8.95739
8.84206
7.89587
9.97443
9.99746
10.0149
10.0296
10.0444
10.0614
10.0816
10.1071
10.1451
10.1963
10.3272
9.90687
10.7578
10.7701
10.7827
10.7986
10.8235
10.8629
10.9206
11.006
11.1401
11.3541
11.8391
12.1365
11.4539
11.4589
11.4683
11.4847
11.515
11.5695
11.6551
11.7867
11.9918
12.3394
13.2197
14.3955
12.0596
12.0622
12.071
12.0874
12.118
12.1754
12.2696
12.4197
12.6442
13.0339
14.0152
15.8847
12.846
12.9945
12.879
12.7612
12.7082
12.6637
12.6208
12.5839
12.5597
12.549
12.5528
12.5615
13.2333
13.089
13.0734
13.0231
12.9917
12.9583
12.925
12.9015
12.8969
12.9111
12.9437
12.9788
13.4079
13.3082
13.2685
13.2058
13.1588
13.1214
13.0979
13.0968
13.1244
13.1788
13.2569
13.3347
13.5426
13.4542
13.379
13.2964
13.2283
13.1812
13.1655
13.192
13.2667
13.3866
13.541
13.6987
12.5776
12.5834
12.5949
12.6105
12.6362
12.6847
12.7676
12.9042
13.0877
13.357
13.6775
14.6236
13.0202
13.0325
13.0495
13.0609
13.0747
13.1033
13.1593
13.263
13.3945
13.5846
13.6586
13.9552
13.4119
13.4263
13.4495
13.4497
13.4429
13.4404
13.4545
13.5068
13.5757
13.704
13.7069
13.7983
13.8254
13.8214
13.8457
13.8217
13.7785
13.7246
13.6719
13.6441
13.6298
13.6863
13.6609
13.7258
12.846
12.9945
12.879
12.7612
12.7082
12.6638
12.6208
12.584
12.5597
12.549
12.5528
12.5615
13.2333
13.089
13.0734
13.0231
12.9918
12.9583
12.9251
12.9016
12.8969
12.9111
12.9437
12.9788
13.408
13.3082
13.2685
13.2059
13.1589
13.1214
13.0979
13.0968
13.1244
13.1788
13.2569
13.3346
13.5427
13.4543
13.379
13.2965
13.2284
13.1813
13.1656
13.192
13.2668
13.3866
13.541
13.6987
12.5776
12.5834
12.5949
12.6105
12.6362
12.6847
12.7676
12.9042
13.0877
13.357
13.6775
14.6237
13.0202
13.0325
13.0494
13.0608
13.0747
13.1033
13.1593
13.263
13.3945
13.5846
13.6586
13.9553
13.4118
13.4263
13.4494
13.4497
13.4429
13.4404
13.4545
13.5068
13.5757
13.704
13.7069
13.7983
13.8254
13.8214
13.8457
13.8217
13.7785
13.7246
13.6719
13.6441
13.6298
13.6863
13.6609
13.7258
12.846
12.9946
12.879
12.7612
12.7082
12.6637
12.6208
12.5839
12.5597
12.549
12.5528
12.5615
13.2333
13.089
13.0734
13.0231
12.9917
12.9583
12.925
12.9015
12.8969
12.911
12.9437
12.9788
13.408
13.3082
13.2685
13.2058
13.1588
13.1213
13.0978
13.0967
13.1243
13.1788
13.2569
13.3346
13.5426
13.4542
13.379
13.2964
13.2283
13.1812
13.1655
13.1919
13.2667
13.3865
13.5409
13.6987
12.5776
12.5834
12.595
12.6106
12.6363
12.6848
12.7677
12.9043
13.0878
13.3571
13.6776
14.6238
13.0202
13.0325
13.0495
13.0609
13.0748
13.1033
13.1594
13.263
13.3946
13.5846
13.6587
13.9553
13.4118
13.4263
13.4495
13.4497
13.443
13.4405
13.4545
13.5069
13.5757
13.704
13.7069
13.7983
13.8254
13.8214
13.8457
13.8217
13.7786
13.7247
13.6719
13.6442
13.6298
13.6863
13.661
13.7259
12.846
12.9946
12.879
12.7612
12.7082
12.6638
12.6209
12.584
12.5597
12.549
12.5528
12.5615
13.2333
13.089
13.0735
13.0232
12.9918
12.9584
12.9251
12.9016
12.897
12.9111
12.9437
12.9789
13.408
13.3083
13.2686
13.2059
13.159
13.1215
13.098
13.0969
13.1244
13.1789
13.257
13.3347
13.5427
13.4543
13.3791
13.2965
13.2284
13.1813
13.1656
13.1921
13.2668
13.3866
13.541
13.6988
12.5776
12.5834
12.5949
12.6105
12.6362
12.6847
12.7676
12.9042
13.0877
13.357
13.6776
14.6237
13.0202
13.0325
13.0494
13.0608
13.0747
13.1033
13.1593
13.263
13.3945
13.5846
13.6586
13.9553
13.4118
13.4263
13.4494
13.4497
13.4429
13.4404
13.4545
13.5068
13.5757
13.704
13.7069
13.7983
13.8254
13.8214
13.8457
13.8216
13.7785
13.7246
13.6719
13.6441
13.6298
13.6863
13.6609
13.7258
13.6643
13.5961
13.5171
13.4361
13.3635
13.309
13.2848
13.3022
13.3677
13.4803
13.6295
13.7999
13.7795
13.7191
13.6515
13.5839
13.5213
13.4701
13.4396
13.4391
13.4748
13.5476
13.6513
13.7785
13.8685
13.8133
13.7528
13.6921
13.6327
13.5797
13.5408
13.5252
13.5413
13.5923
13.6778
13.7916
13.9351
13.883
13.8259
13.7668
13.7056
13.6462
13.5962
13.5658
13.5672
13.6084
13.6914
13.7549
13.9948
14.0107
14.048
14.0267
13.9858
13.9264
13.8607
13.8042
13.7556
13.7553
13.7091
13.7407
14.0192
14.0297
14.0796
14.0753
14.0586
14.0273
13.9914
13.959
13.9271
13.9149
13.8683
13.8541
14.1115
14.0751
14.1267
14.1301
14.1246
14.1065
14.0839
14.0605
14.0336
14.0129
13.9675
13.9359
14.3253
14.1619
14.1835
14.1843
14.181
14.1685
14.1514
14.1308
14.1045
14.0777
14.0328
13.9946
13.6643
13.5961
13.5172
13.4362
13.3635
13.3091
13.2849
13.3022
13.3678
13.4803
13.6295
13.7999
13.7795
13.7191
13.6515
13.584
13.5213
13.4701
13.4397
13.4391
13.4749
13.5476
13.6513
13.7785
13.8685
13.8133
13.7528
13.6921
13.6328
13.5797
13.5408
13.5252
13.5413
13.5923
13.6778
13.7916
13.9351
13.883
13.8259
13.7669
13.7056
13.6462
13.5962
13.5659
13.5672
13.6084
13.6914
13.7549
13.9948
14.0107
14.0479
14.0267
13.9858
13.9264
13.8607
13.8042
13.7556
13.7553
13.7091
13.7407
14.0192
14.0296
14.0795
14.0752
14.0586
14.0273
13.9914
13.959
13.9271
13.9149
13.8683
13.854
14.1114
14.0751
14.1266
14.1301
14.1246
14.1065
14.0839
14.0605
14.0335
14.0129
13.9674
13.9359
14.3253
14.1619
14.1835
14.1843
14.181
14.1684
14.1514
14.1308
14.1045
14.0777
14.0328
13.9946
13.6643
13.5961
13.5171
13.4362
13.3635
13.309
13.2848
13.3021
13.3677
13.4803
13.6294
13.7999
13.7795
13.7191
13.6515
13.5839
13.5213
13.47
13.4396
13.439
13.4748
13.5475
13.6513
13.7785
13.8685
13.8133
13.7528
13.6921
13.6327
13.5797
13.5407
13.5252
13.5412
13.5923
13.6777
13.7916
13.9351
13.883
13.8259
13.7668
13.7056
13.6462
13.5961
13.5658
13.5672
13.6083
13.6914
13.7549
13.9948
14.0107
14.048
14.0268
13.9858
13.9265
13.8608
13.8043
13.7557
13.7554
13.7091
13.7408
14.0192
14.0297
14.0796
14.0753
14.0587
14.0274
13.9915
13.9591
13.9271
13.915
13.8684
13.8541
14.1115
14.0751
14.1267
14.1301
14.1246
14.1066
14.084
14.0606
14.0336
14.013
13.9675
13.9359
14.3254
14.1619
14.1836
14.1844
14.1811
14.1685
14.1515
14.1309
14.1046
14.0778
14.0329
13.9947
13.6644
13.5962
13.5172
13.4363
13.3636
13.3092
13.285
13.3023
13.3678
13.4804
13.6295
13.7999
13.7796
13.7192
13.6516
13.584
13.5214
13.4702
13.4397
13.4392
13.4749
13.5477
13.6514
13.7785
13.8686
13.8134
13.7529
13.6922
13.6328
13.5798
13.5409
13.5253
13.5414
13.5924
13.6778
13.7917
13.9352
13.8831
13.8259
13.7669
13.7057
13.6463
13.5963
13.5659
13.5673
13.6085
13.6915
13.755
13.9948
14.0106
14.0479
14.0267
13.9857
13.9264
13.8607
13.8042
13.7556
13.7553
13.7091
13.7407
14.0192
14.0296
14.0795
14.0752
14.0586
14.0273
13.9914
13.959
13.927
13.9149
13.8683
13.8541
14.1115
14.0751
14.1266
14.1301
14.1246
14.1065
14.0839
14.0605
14.0335
14.0129
13.9674
13.9359
14.3253
14.1619
14.1835
14.1843
14.181
14.1684
14.1514
14.1308
14.1045
14.0777
14.0328
13.9946
13.9829
13.9315
13.8746
13.8134
13.7465
13.6775
13.6137
13.5659
13.5467
13.5581
13.6007
13.4966
14.0152
13.9625
13.9032
13.837
13.7623
13.6823
13.6039
13.539
13.5005
13.4879
13.5278
13.5124
14.0352
13.9801
13.9168
13.8445
13.7615
13.6711
13.5808
13.5041
13.4572
13.4449
13.4821
13.5038
14.0463
13.9883
13.9207
13.8423
13.7521
13.6537
13.5558
13.4744
13.4284
13.424
13.4629
13.5021
14.0515
13.9907
13.9191
13.8357
13.7402
13.6368
13.5358
13.4554
13.4143
13.4181
13.463
13.5117
14.0532
13.9901
13.9155
13.8285
13.7298
13.6242
13.5235
13.4471
13.4125
13.4242
13.4775
13.5304
14.0534
13.9887
13.9123
13.8232
13.7229
13.6173
13.5187
13.4476
13.4195
13.4385
13.4991
13.5546
14.0537
13.9883
13.9112
13.8213
13.7209
13.6162
13.5204
13.4546
13.4319
13.4573
13.524
13.5802
14.0556
13.9904
13.9137
13.8241
13.7245
13.6211
13.5276
13.4659
13.4465
13.4767
13.5473
13.6041
14.0611
13.9975
13.9225
13.8343
13.7359
13.633
13.5399
13.4799
13.4599
13.492
13.5647
13.6234
14.0718
14.012
13.9403
13.8547
13.7576
13.6542
13.5587
13.4966
13.4709
13.5023
13.5779
13.6342
14.0822
14.0267
13.9594
13.8779
13.7839
13.6815
13.5868
13.5127
13.485
13.5138
13.5861
13.6365
14.7156
14.3428
14.2463
14.2324
14.2258
14.2149
14.2002
14.1805
14.1541
14.1236
14.0793
14.0378
14.6892
14.4184
14.2915
14.268
14.2599
14.2492
14.2351
14.2152
14.1881
14.1553
14.1116
14.0681
14.6215
14.412
14.3197
14.2925
14.2848
14.2742
14.2598
14.2389
14.2107
14.1763
14.1329
14.0878
14.5521
14.39
14.336
14.3098
14.3027
14.2923
14.2771
14.2548
14.2253
14.1895
14.1459
14.0996
14.4964
14.373
14.3458
14.3225
14.3157
14.3055
14.2891
14.2653
14.2343
14.1971
14.1533
14.1058
14.461
14.3646
14.3527
14.3325
14.3259
14.3149
14.2972
14.272
14.2395
14.2012
14.157
14.1086
14.4465
14.3663
14.3595
14.3413
14.334
14.3215
14.3026
14.2759
14.2423
14.2031
14.1586
14.1096
14.4476
14.379
14.3672
14.3496
14.3401
14.3259
14.3058
14.278
14.2434
14.2038
14.1595
14.1103
14.4592
14.4006
14.3763
14.3572
14.3439
14.3277
14.3068
14.2785
14.2436
14.204
14.1604
14.1118
14.4754
14.4265
14.387
14.3624
14.3436
14.3255
14.3045
14.2768
14.2427
14.2043
14.1623
14.1155
14.4954
14.4487
14.3993
14.3651
14.3397
14.3194
14.2986
14.2722
14.2403
14.2048
14.1659
14.1225
14.5161
14.467
14.4091
14.3689
14.3387
14.3161
14.2942
14.2681
14.2381
14.2053
14.1693
14.1291
13.9829
13.9316
13.8746
13.8134
13.7465
13.6776
13.6137
13.5659
13.5467
13.5582
13.6008
13.4966
14.0152
13.9626
13.9032
13.8371
13.7624
13.6823
13.604
13.539
13.5005
13.4879
13.5278
13.5124
14.0352
13.9801
13.9169
13.8445
13.7616
13.6711
13.5808
13.5041
13.4572
13.4449
13.4821
13.5038
14.0464
13.9883
13.9207
13.8423
13.7522
13.6537
13.5558
13.4745
13.4284
13.424
13.4629
13.5021
14.0515
13.9907
13.9192
13.8357
13.7403
13.6369
13.5359
13.4554
13.4144
13.4181
13.463
13.5117
14.0532
13.9901
13.9156
13.8285
13.7298
13.6243
13.5235
13.4471
13.4125
13.4243
13.4775
13.5304
14.0534
13.9888
13.9124
13.8232
13.723
13.6173
13.5187
13.4476
13.4195
13.4385
13.4991
13.5546
14.0538
13.9884
13.9113
13.8213
13.721
13.6163
13.5205
13.4546
13.4319
13.4573
13.524
13.5802
14.0557
13.9905
13.9137
13.8242
13.7246
13.6211
13.5277
13.4659
13.4465
13.4767
13.5473
13.6042
14.0611
13.9976
13.9225
13.8343
13.7359
13.6331
13.5399
13.48
13.4599
13.492
13.5647
13.6235
14.0718
14.012
13.9404
13.8547
13.7576
13.6543
13.5587
13.4966
13.4709
13.5023
13.5779
13.6342
14.0823
14.0267
13.9594
13.8779
13.7839
13.6816
13.5868
13.5127
13.485
13.5139
13.5862
13.6365
14.7156
14.3428
14.2463
14.2324
14.2258
14.2149
14.2002
14.1805
14.1541
14.1235
14.0793
14.0378
14.6892
14.4184
14.2915
14.268
14.2599
14.2492
14.2351
14.2151
14.188
14.1553
14.1116
14.0681
14.6214
14.4119
14.3196
14.2925
14.2848
14.2741
14.2598
14.2389
14.2107
14.1763
14.1328
14.0878
14.552
14.3899
14.3359
14.3097
14.3026
14.2923
14.2771
14.2548
14.2253
14.1894
14.1459
14.0996
14.4964
14.373
14.3457
14.3225
14.3157
14.3054
14.2891
14.2653
14.2343
14.1971
14.1533
14.1058
14.461
14.3645
14.3527
14.3325
14.3259
14.3148
14.2972
14.272
14.2395
14.2012
14.157
14.1085
14.4465
14.3662
14.3594
14.3412
14.3339
14.3215
14.3025
14.2759
14.2422
14.2031
14.1586
14.1095
14.4476
14.379
14.3672
14.3495
14.3401
14.3259
14.3057
14.278
14.2434
14.2037
14.1594
14.1102
14.4592
14.4006
14.3763
14.3572
14.3438
14.3277
14.3068
14.2785
14.2435
14.204
14.1603
14.1117
14.4753
14.4265
14.387
14.3624
14.3436
14.3255
14.3045
14.2768
14.2426
14.2043
14.1623
14.1154
14.4954
14.4487
14.3993
14.3651
14.3397
14.3193
14.2985
14.2722
14.2403
14.2048
14.1659
14.1224
14.5161
14.4669
14.4091
14.3688
14.3387
14.3161
14.2942
14.2681
14.2381
14.2053
14.1693
14.129
13.9829
13.9315
13.8746
13.8134
13.7465
13.6775
13.6137
13.5659
13.5467
13.5581
13.6007
13.4965
14.0152
13.9625
13.9032
13.837
13.7623
13.6823
13.6039
13.539
13.5005
13.4878
13.5278
13.5123
14.0352
13.9801
13.9168
13.8445
13.7615
13.6711
13.5807
13.504
13.4571
13.4448
13.482
13.5037
14.0463
13.9883
13.9207
13.8423
13.7521
13.6536
13.5557
13.4744
13.4283
13.424
13.4628
13.502
14.0515
13.9907
13.9191
13.8357
13.7402
13.6368
13.5358
13.4553
13.4143
13.418
13.4629
13.5116
14.0532
13.9901
13.9156
13.8285
13.7297
13.6242
13.5234
13.447
13.4124
13.4242
13.4774
13.5304
14.0534
13.9887
13.9124
13.8232
13.7229
13.6173
13.5186
13.4475
13.4194
13.4384
13.499
13.5545
14.0537
13.9883
13.9112
13.8213
13.7209
13.6162
13.5204
13.4545
13.4318
13.4572
13.524
13.5802
14.0557
13.9904
13.9137
13.8242
13.7245
13.6211
13.5276
13.4658
13.4464
13.4766
13.5473
13.6041
14.0611
13.9975
13.9225
13.8343
13.7359
13.633
13.5399
13.4799
13.4598
13.4919
13.5647
13.6234
14.0718
14.012
13.9403
13.8547
13.7576
13.6542
13.5586
13.4966
13.4708
13.5022
13.5778
13.6341
14.0822
14.0267
13.9594
13.8779
13.7839
13.6815
13.5868
13.5127
13.485
13.5138
13.5861
13.6364
14.7157
14.3429
14.2464
14.2325
14.2259
14.215
14.2003
14.1806
14.1542
14.1236
14.0793
14.0379
14.6894
14.4185
14.2915
14.2681
14.26
14.2493
14.2352
14.2152
14.1881
14.1554
14.1116
14.0681
14.6216
14.4121
14.3197
14.2926
14.2849
14.2742
14.2599
14.2389
14.2108
14.1764
14.1329
14.0879
14.5522
14.3901
14.336
14.3099
14.3027
14.2924
14.2772
14.2549
14.2254
14.1895
14.146
14.0997
14.4965
14.3731
14.3458
14.3226
14.3158
14.3055
14.2891
14.2654
14.2344
14.1972
14.1533
14.1059
14.4612
14.3647
14.3528
14.3326
14.326
14.3149
14.2973
14.272
14.2396
14.2013
14.157
14.1086
14.4466
14.3664
14.3596
14.3413
14.334
14.3216
14.3026
14.276
14.2423
14.2031
14.1587
14.1096
14.4477
14.3791
14.3673
14.3497
14.3402
14.326
14.3058
14.2781
14.2435
14.2038
14.1595
14.1103
14.4593
14.4007
14.3764
14.3573
14.3439
14.3278
14.3068
14.2786
14.2436
14.204
14.1604
14.1118
14.4755
14.4266
14.3871
14.3625
14.3437
14.3256
14.3046
14.2769
14.2427
14.2044
14.1624
14.1155
14.4955
14.4488
14.3994
14.3652
14.3398
14.3194
14.2986
14.2723
14.2403
14.2048
14.166
14.1225
14.5163
14.4671
14.4092
14.3689
14.3388
14.3162
14.2943
14.2682
14.2382
14.2054
14.1694
14.1291
13.983
13.9316
13.8747
13.8135
13.7466
13.6776
13.6138
13.566
13.5468
13.5582
13.6008
13.4966
14.0152
13.9626
13.9033
13.8371
13.7624
13.6824
13.604
13.5391
13.5006
13.4879
13.5279
13.5124
14.0353
13.9802
13.9169
13.8446
13.7616
13.6712
13.5808
13.5041
13.4573
13.4449
13.4821
13.5038
14.0464
13.9884
13.9207
13.8424
13.7522
13.6537
13.5558
13.4745
13.4284
13.4241
13.4629
13.5021
14.0516
13.9908
13.9192
13.8358
13.7403
13.6369
13.5359
13.4554
13.4144
13.4181
13.4631
13.5117
14.0532
13.9902
13.9156
13.8285
13.7298
13.6243
13.5235
13.4471
13.4126
13.4243
13.4775
13.5305
14.0534
13.9888
13.9124
13.8232
13.723
13.6173
13.5187
13.4476
13.4195
13.4386
13.4991
13.5546
14.0538
13.9884
13.9113
13.8214
13.721
13.6163
13.5205
13.4546
13.4319
13.4574
13.5241
13.5803
14.0557
13.9905
13.9138
13.8242
13.7246
13.6211
13.5277
13.4659
13.4465
13.4767
13.5474
13.6042
14.0612
13.9976
13.9225
13.8343
13.7359
13.6331
13.54
13.48
13.4599
13.4921
13.5648
13.6235
14.0719
14.012
13.9404
13.8547
13.7577
13.6543
13.5587
13.4967
13.4709
13.5023
13.5779
13.6342
14.0823
14.0267
13.9595
13.878
13.784
13.6816
13.5869
13.5128
13.4851
13.5139
13.5862
13.6365
14.7156
14.3428
14.2463
14.2324
14.2258
14.2149
14.2002
14.1805
14.1541
14.1235
14.0792
14.0378
14.6893
14.4184
14.2915
14.268
14.2599
14.2492
14.2351
14.2151
14.188
14.1553
14.1116
14.0681
14.6215
14.412
14.3196
14.2925
14.2848
14.2741
14.2598
14.2389
14.2107
14.1763
14.1328
14.0878
14.5521
14.39
14.3359
14.3098
14.3026
14.2923
14.2771
14.2548
14.2253
14.1894
14.1459
14.0996
14.4964
14.373
14.3457
14.3225
14.3157
14.3054
14.289
14.2653
14.2343
14.1971
14.1533
14.1058
14.4611
14.3646
14.3527
14.3325
14.3259
14.3148
14.2972
14.2719
14.2395
14.2012
14.157
14.1085
14.4465
14.3662
14.3595
14.3412
14.3339
14.3215
14.3025
14.2759
14.2422
14.203
14.1586
14.1095
14.4476
14.379
14.3672
14.3496
14.3401
14.3259
14.3057
14.278
14.2434
14.2037
14.1594
14.1102
14.4592
14.4006
14.3763
14.3572
14.3438
14.3277
14.3067
14.2785
14.2435
14.204
14.1603
14.1117
14.4754
14.4265
14.387
14.3624
14.3436
14.3255
14.3045
14.2768
14.2426
14.2043
14.1623
14.1154
14.4954
14.4487
14.3993
14.3651
14.3397
14.3193
14.2985
14.2722
14.2403
14.2047
14.1659
14.1224
14.5162
14.467
14.4091
14.3688
14.3387
14.3161
14.2942
14.2681
14.2381
14.2053
14.1693
14.129
)
;

boundaryField
{
    rotor
    {
        type            zeroGradient;
    }
    stator
    {
        type            zeroGradient;
    }
    front
    {
        type            empty;
    }
    back
    {
        type            empty;
    }
}


// ************************************************************************* //
