/*--------------------------------*- C++ -*----------------------------------*\
| =========                 |                                                 |
| \\      /  F ield         | OpenFOAM: The Open Source CFD Toolbox           |
|  \\    /   O peration     | Version:  v1912                                 |
|   \\  /    A nd           | Website:  www.openfoam.com                      |
|    \\/     M anipulation  |                                                 |
\*---------------------------------------------------------------------------*/
FoamFile
{
    version     2.0;
    format      ascii;
    class       surfaceScalarField;
    location    "500";
    object      phi;
}
// * * * * * * * * * * * * * * * * * * * * * * * * * * * * * * * * * * * * * //

dimensions      [0 3 -1 0 0 0 0];
oriented        oriented;


internalField   nonuniform List<scalar> 
5952
(
5.11287e-06
-5.11036e-06
8.71768e-06
-3.60467e-06
1.14343e-05
-2.71655e-06
1.29347e-05
-1.50021e-06
1.31089e-05
-1.74191e-07
1.16743e-05
1.43476e-06
7.58815e-06
4.08604e-06
1.50743e-06
6.0808e-06
-1.09234e-05
1.24307e-05
-2.54204e-05
1.4497e-05
-3.6522e-05
1.11016e-05
8.5837e-06
-4.51058e-05
1.57347e-06
-6.68356e-06
3.95675e-06
-5.98783e-06
4.26044e-06
-3.02006e-06
2.68452e-06
7.57946e-08
-1.05403e-06
3.56454e-06
-8.36277e-06
8.74356e-06
-1.96311e-05
1.53544e-05
-3.18378e-05
1.82875e-05
-3.812e-05
1.87129e-05
-4.06203e-05
1.69974e-05
-4.29895e-05
1.34708e-05
1.05771e-05
-4.4983e-05
1.36551e-06
-8.04893e-06
1.19845e-06
-5.82064e-06
-8.44391e-07
-9.77105e-07
-5.64201e-06
4.87352e-06
-1.4012e-05
1.19346e-05
-2.36173e-05
1.83489e-05
-2.96957e-05
2.14328e-05
-3.29023e-05
2.14941e-05
-3.42449e-05
2.00555e-05
-3.47069e-05
1.74594e-05
-3.54059e-05
1.41698e-05
1.12267e-05
-3.60555e-05
-1.58786e-06
-6.46097e-06
-4.39706e-06
-3.01134e-06
-8.9426e-06
3.56852e-06
-1.53373e-05
1.12682e-05
-2.15536e-05
1.81509e-05
-2.54211e-05
2.22164e-05
-2.70016e-05
2.30133e-05
-2.74152e-05
2.19077e-05
-2.73505e-05
1.99907e-05
-2.71826e-05
1.72914e-05
-2.72263e-05
1.42136e-05
1.12691e-05
-2.72687e-05
-3.5782e-06
-2.8826e-06
-8.42676e-06
1.83734e-06
-1.34948e-05
8.63667e-06
-1.79401e-05
1.57136e-05
-2.06192e-05
2.083e-05
-2.12721e-05
2.28694e-05
-2.0882e-05
2.26232e-05
-2.01543e-05
2.11801e-05
-1.92481e-05
1.90845e-05
-1.84947e-05
1.65381e-05
-1.80212e-05
1.374e-05
1.09344e-05
-1.76865e-05
-4.85975e-06
1.97736e-06
-9.85336e-06
6.83113e-06
-1.37733e-05
1.25568e-05
-1.58938e-05
1.78343e-05
-1.61107e-05
2.1047e-05
-1.51246e-05
2.18834e-05
-1.37007e-05
2.11993e-05
-1.22259e-05
1.97052e-05
-1.08787e-05
1.77373e-05
-9.78624e-06
1.54456e-05
-8.99055e-06
1.29443e-05
1.03589e-05
-8.41501e-06
-5.31911e-06
7.29686e-06
-9.54085e-06
1.10531e-05
-1.18811e-05
1.48972e-05
-1.20782e-05
1.80315e-05
-1.0687e-05
1.96559e-05
-8.61823e-06
1.98147e-05
-6.44601e-06
1.90271e-05
-4.42837e-06
1.76877e-05
-2.68415e-06
1.59931e-05
-1.26962e-06
1.4031e-05
-1.88974e-07
1.18637e-05
9.5583e-06
6.11614e-07
-5.33128e-06
1.26283e-05
-8.44369e-06
1.41657e-05
-9.121e-06
1.55747e-05
-7.73355e-06
1.66442e-05
-5.16477e-06
1.70872e-05
-2.22845e-06
1.68785e-05
6.19292e-07
1.61794e-05
3.17005e-06
1.51369e-05
5.33921e-06
1.3824e-05
7.10385e-06
1.22664e-05
8.4826e-06
1.04849e-05
8.51515e-06
9.52575e-06
-4.71563e-06
1.73441e-05
-6.54218e-06
1.59923e-05
-5.4768e-06
1.45093e-05
-2.69201e-06
1.38594e-05
9.08731e-07
1.34865e-05
4.62623e-06
1.3161e-05
8.08203e-06
1.27237e-05
1.11122e-05
1.21068e-05
1.36632e-05
1.1273e-05
1.57381e-05
1.01915e-05
1.73765e-05
8.84652e-06
7.25725e-06
1.86344e-05
-4.06525e-06
2.14092e-05
-3.11626e-06
1.50433e-05
4.45994e-07
1.09471e-05
4.72523e-06
9.58019e-06
9.20694e-06
9.00483e-06
1.34524e-05
8.91556e-06
1.72277e-05
8.94842e-06
2.04549e-05
8.87963e-06
2.3134e-05
8.59382e-06
2.53013e-05
8.02417e-06
2.70194e-05
7.12847e-06
5.92516e-06
2.83515e-05
6.27413e-07
2.07817e-05
6.1392e-06
9.53139e-06
1.19951e-05
5.09112e-06
1.73208e-05
4.25443e-06
2.19988e-05
4.32682e-06
2.60193e-05
4.89508e-06
2.94213e-05
5.54646e-06
3.22505e-05
6.05038e-06
3.45627e-05
6.28168e-06
3.64171e-05
6.16975e-06
3.78897e-05
5.65591e-06
4.77357e-06
3.90413e-05
2.04731e-05
3.0845e-07
2.87839e-05
1.22057e-06
3.38462e-05
2.86802e-08
3.76966e-05
4.04059e-07
4.06608e-05
1.36252e-06
4.30929e-05
2.46301e-06
4.51322e-05
3.50714e-06
4.68205e-05
4.36209e-06
4.81888e-05
4.91342e-06
4.92702e-05
5.08835e-06
5.01296e-05
4.79644e-06
5.08114e-05
4.09179e-06
-5.114e-05
6.03421e-06
-5.51957e-05
4.0557e-06
-5.7088e-05
1.89223e-06
-5.71927e-05
1.04706e-07
-5.54718e-05
-1.72088e-06
-5.20333e-05
-3.43849e-06
-4.66127e-05
-5.42058e-06
-3.92476e-05
-7.36513e-06
-2.97427e-05
-9.50497e-06
-1.8337e-05
-1.14057e-05
-6.97744e-06
-1.13596e-05
-6.97745e-06
-4.66606e-05
7.7118e-06
-4.74987e-05
4.89384e-06
-4.78254e-05
2.21891e-06
-4.74307e-05
-2.90032e-07
-4.63582e-05
-2.79332e-06
-4.43296e-05
-5.46717e-06
-4.13386e-05
-8.41152e-06
-3.70059e-05
-1.16979e-05
-3.11685e-05
-1.53423e-05
-2.35177e-05
-1.90565e-05
-1.3108e-05
-2.17693e-05
-2.00855e-05
-3.66203e-05
8.27661e-06
-3.70808e-05
5.35435e-06
-3.73225e-05
2.4606e-06
-3.7153e-05
-4.59528e-07
-3.64178e-05
-3.52854e-06
-3.50466e-05
-6.83839e-06
-3.29348e-05
-1.05233e-05
-2.99509e-05
-1.46818e-05
-2.60077e-05
-1.92855e-05
-2.06258e-05
-2.44385e-05
-1.27864e-05
-2.96087e-05
-3.28719e-05
-2.72985e-05
8.30641e-06
-2.72737e-05
5.32953e-06
-2.71275e-05
2.31441e-06
-2.67859e-05
-8.01181e-07
-2.61872e-05
-4.12726e-06
-2.52569e-05
-7.76867e-06
-2.39015e-05
-1.18788e-05
-2.19919e-05
-1.65914e-05
-1.93119e-05
-2.19655e-05
-1.53695e-05
-2.83809e-05
-9.40007e-06
-3.55781e-05
-4.22719e-05
-1.74591e-05
8.07899e-06
-1.7294e-05
5.16435e-06
-1.71365e-05
2.15692e-06
-1.69298e-05
-1.0079e-06
-1.66291e-05
-4.42793e-06
-1.6183e-05
-8.21477e-06
-1.55321e-05
-1.25297e-05
-1.46116e-05
-1.75119e-05
-1.32164e-05
-2.33607e-05
-1.11231e-05
-3.04742e-05
-7.44012e-06
-3.92612e-05
-4.9712e-05
-8.01951e-06
7.68349e-06
-7.76305e-06
4.90788e-06
-7.60504e-06
1.99891e-06
-7.51047e-06
-1.10248e-06
-7.45483e-06
-4.48358e-06
-7.41522e-06
-8.2544e-06
-7.38581e-06
-1.25591e-05
-7.32685e-06
-1.75709e-05
-7.12194e-06
-2.35656e-05
-6.5847e-06
-3.10115e-05
-4.87611e-06
-4.09697e-05
-5.45881e-05
1.17447e-06
7.12063e-06
1.53541e-06
4.54695e-06
1.72228e-06
1.81203e-06
1.75103e-06
-1.13124e-06
1.62308e-06
-4.35564e-06
1.3267e-06
-7.95803e-06
8.34977e-07
-1.20674e-05
1.31587e-07
-1.68675e-05
-7.57444e-07
-2.26766e-05
-1.70802e-06
-3.00609e-05
-2.24809e-06
-4.04297e-05
-5.68362e-05
1.02805e-05
6.36589e-06
1.07804e-05
4.04705e-06
1.10456e-05
1.54682e-06
1.10783e-05
-1.16401e-06
1.08612e-05
-4.13855e-06
1.03533e-05
-7.45013e-06
9.48154e-06
-1.11956e-05
8.15333e-06
-1.55393e-05
6.27584e-06
-2.07991e-05
3.83475e-06
-2.76198e-05
1.22159e-06
-3.78165e-05
-5.56147e-05
1.9569e-05
5.43132e-06
2.02153e-05
3.40073e-06
2.05919e-05
1.17023e-06
2.06923e-05
-1.26445e-06
2.04851e-05
-3.93137e-06
1.99054e-05
-6.87043e-06
1.8831e-05
-1.01212e-05
1.70834e-05
-1.37917e-05
1.44166e-05
-1.81324e-05
1.05773e-05
-2.37806e-05
5.66862e-06
-3.29079e-05
-4.99461e-05
2.93679e-05
4.41493e-06
3.01031e-05
2.66549e-06
3.05783e-05
6.95034e-07
3.07829e-05
-1.46904e-06
3.06743e-05
-3.82278e-06
3.01686e-05
-6.36474e-06
2.91012e-05
-9.05389e-06
2.72157e-05
-1.19062e-05
2.41007e-05
-1.50175e-05
1.92512e-05
-1.89311e-05
1.18536e-05
-2.55103e-05
-3.80926e-05
3.99565e-05
3.49966e-06
4.06591e-05
1.96292e-06
4.11734e-05
1.80704e-07
4.14868e-05
-1.78244e-06
4.15472e-05
-3.88315e-06
4.12568e-05
-6.07439e-06
4.04239e-05
-8.22101e-06
3.87484e-05
-1.02307e-05
3.56833e-05
-1.19524e-05
3.0489e-05
-1.37368e-05
2.06388e-05
-1.56603e-05
-1.74537e-05
5.14234e-05
2.88772e-06
5.19624e-05
1.42386e-06
5.24547e-05
-3.11546e-07
5.28786e-05
-2.20633e-06
5.31669e-05
-4.17148e-06
5.32103e-05
-6.11782e-06
5.28149e-05
-7.82562e-06
5.17103e-05
-9.12602e-06
4.93736e-05
-9.61569e-06
4.48718e-05
-9.235e-06
3.45529e-05
-5.34134e-06
1.70991e-05
5.11177e-06
-5.11169e-06
8.71684e-06
-3.60505e-06
1.14337e-05
-2.71683e-06
1.29342e-05
-1.50033e-06
1.31085e-05
-1.74332e-07
1.16746e-05
1.43407e-06
7.58949e-06
4.08499e-06
1.5089e-06
6.08068e-06
-1.09211e-05
1.24298e-05
-2.5419e-05
1.44979e-05
-3.6522e-05
1.1103e-05
8.58436e-06
-4.51064e-05
1.57289e-06
-6.68449e-06
3.95653e-06
-5.98867e-06
4.26055e-06
-3.0207e-06
2.6851e-06
7.51395e-08
-1.05251e-06
3.56342e-06
-8.36018e-06
8.74177e-06
-1.96283e-05
1.53531e-05
-3.18358e-05
1.82882e-05
-3.81199e-05
1.87139e-05
-4.06211e-05
1.6999e-05
-4.29905e-05
1.34724e-05
1.0578e-05
-4.49842e-05
1.36564e-06
-8.05e-06
1.19935e-06
-5.8223e-06
-8.42402e-07
-9.78878e-07
-5.63833e-06
4.87114e-06
-1.40072e-05
1.19323e-05
-2.36137e-05
1.83483e-05
-2.96946e-05
2.1434e-05
-3.29027e-05
2.14963e-05
-3.42464e-05
2.00577e-05
-3.4709e-05
1.74616e-05
-3.54076e-05
1.4171e-05
1.12275e-05
-3.60571e-05
-1.58703e-06
-6.46283e-06
-4.39509e-06
-3.01413e-06
-8.93942e-06
3.56554e-06
-1.5334e-05
1.12658e-05
-2.15518e-05
1.81501e-05
-2.54211e-05
2.22177e-05
-2.70027e-05
2.30156e-05
-2.74168e-05
2.19103e-05
-2.73522e-05
1.99931e-05
-2.71841e-05
1.72934e-05
-2.72278e-05
1.42147e-05
1.12698e-05
-2.72701e-05
-3.5775e-06
-2.8851e-06
-8.42556e-06
1.83413e-06
-1.34937e-05
8.63383e-06
-1.79399e-05
1.5712e-05
-2.062e-05
2.08303e-05
-2.12737e-05
2.28713e-05
-2.08837e-05
2.26256e-05
-2.0156e-05
2.11825e-05
-1.92495e-05
1.90866e-05
-1.84958e-05
1.65397e-05
-1.80222e-05
1.3741e-05
1.0935e-05
-1.76875e-05
-4.85937e-06
1.9749e-06
-9.85354e-06
6.82859e-06
-1.37742e-05
1.25547e-05
-1.58953e-05
1.78334e-05
-1.61126e-05
2.10476e-05
-1.51263e-05
2.18852e-05
-1.37023e-05
2.12014e-05
-1.22271e-05
1.97074e-05
-1.08797e-05
1.77391e-05
-9.78698e-06
1.54469e-05
-8.9912e-06
1.29452e-05
1.03594e-05
-8.41555e-06
-5.31968e-06
7.29484e-06
-9.542e-06
1.10512e-05
-1.18828e-05
1.48957e-05
-1.20802e-05
1.80309e-05
-1.06889e-05
1.96565e-05
-8.61976e-06
1.98161e-05
-6.44715e-06
1.90289e-05
-4.42919e-06
1.76894e-05
-2.6847e-06
1.59946e-05
-1.26998e-06
1.40322e-05
-1.8922e-07
1.18644e-05
9.5587e-06
6.11444e-07
-5.33211e-06
1.26272e-05
-8.44518e-06
1.41643e-05
-9.12282e-06
1.55735e-05
-7.73547e-06
1.66436e-05
-5.16647e-06
1.70875e-05
-2.22976e-06
1.68795e-05
6.18386e-07
1.61808e-05
3.1695e-06
1.51383e-05
5.33894e-06
1.38252e-05
7.10378e-06
1.22674e-05
8.48265e-06
1.04855e-05
8.51545e-06
9.52589e-06
-4.7166e-06
1.73438e-05
-6.54352e-06
1.59914e-05
-5.47842e-06
1.45084e-05
-2.69369e-06
1.38589e-05
9.07239e-07
1.34866e-05
4.6251e-06
1.31616e-05
8.08129e-06
1.27246e-05
1.11118e-05
1.21078e-05
1.36631e-05
1.12739e-05
1.57382e-05
1.01922e-05
1.73768e-05
8.84698e-06
7.25744e-06
1.86348e-05
-4.06566e-06
2.14096e-05
-3.117e-06
1.50427e-05
4.44921e-07
1.09465e-05
4.724e-06
9.57985e-06
9.2058e-06
9.00485e-06
1.34515e-05
8.91594e-06
1.72271e-05
8.94907e-06
2.04546e-05
8.88035e-06
2.3134e-05
8.59448e-06
2.53016e-05
8.02466e-06
2.70198e-05
7.12876e-06
5.92523e-06
2.8352e-05
6.27516e-07
2.0782e-05
6.13894e-06
9.53127e-06
1.19945e-05
5.09093e-06
1.732e-05
4.2543e-06
2.1998e-05
4.32687e-06
2.60186e-05
4.89535e-06
2.94208e-05
5.54688e-06
3.22503e-05
6.05084e-06
3.45627e-05
6.28208e-06
3.64173e-05
6.17002e-06
3.78901e-05
5.656e-06
4.7735e-06
3.90418e-05
2.04731e-05
3.08864e-07
2.87836e-05
1.22074e-06
3.38457e-05
2.88265e-08
3.76958e-05
4.04163e-07
4.066e-05
1.36265e-06
4.30921e-05
2.4632e-06
4.51316e-05
3.50738e-06
4.68202e-05
4.36231e-06
4.81887e-05
4.91357e-06
4.92703e-05
5.08837e-06
5.013e-05
4.79633e-06
5.08119e-05
4.09156e-06
-5.11413e-05
6.03481e-06
-5.51973e-05
4.05606e-06
-5.70898e-05
1.89243e-06
-5.71946e-05
1.0479e-07
-5.54737e-05
-1.72089e-06
-5.20352e-05
-3.43857e-06
-4.66145e-05
-5.4207e-06
-3.92492e-05
-7.36527e-06
-2.97441e-05
-9.50517e-06
-1.83381e-05
-1.14059e-05
-6.97823e-06
-1.136e-05
-6.97825e-06
-4.6662e-05
7.71258e-06
-4.75002e-05
4.89427e-06
-4.7827e-05
2.21914e-06
-4.74322e-05
-2.89981e-07
-4.63597e-05
-2.7934e-06
-4.43309e-05
-5.46735e-06
-4.13399e-05
-8.41179e-06
-3.70069e-05
-1.16982e-05
-3.11693e-05
-1.53428e-05
-2.35183e-05
-1.9057e-05
-1.31084e-05
-2.17699e-05
-2.00867e-05
-3.66218e-05
8.27722e-06
-3.70822e-05
5.3547e-06
-3.73238e-05
2.46074e-06
-3.71542e-05
-4.59571e-07
-3.64189e-05
-3.52873e-06
-3.50476e-05
-6.83871e-06
-3.29356e-05
-1.05238e-05
-2.99515e-05
-1.46823e-05
-2.60082e-05
-1.92861e-05
-2.0626e-05
-2.44392e-05
-1.27863e-05
-2.96096e-05
-3.2873e-05
-2.72998e-05
8.30688e-06
-2.72748e-05
5.32975e-06
-2.71285e-05
2.31442e-06
-2.67868e-05
-8.01335e-07
-2.61879e-05
-4.12756e-06
-2.52576e-05
-7.76908e-06
-2.3902e-05
-1.18793e-05
-2.19924e-05
-1.6592e-05
-1.93123e-05
-2.19662e-05
-1.53698e-05
-2.83817e-05
-9.40023e-06
-3.55791e-05
-4.22732e-05
-1.74599e-05
8.07933e-06
-1.72947e-05
5.16445e-06
-1.71371e-05
2.15683e-06
-1.69303e-05
-1.00815e-06
-1.66295e-05
-4.42831e-06
-1.61834e-05
-8.21527e-06
-1.55324e-05
-1.25303e-05
-1.46118e-05
-1.75125e-05
-1.32166e-05
-2.33615e-05
-1.11232e-05
-3.04751e-05
-7.44013e-06
-3.92622e-05
-4.97134e-05
-8.01996e-06
7.68372e-06
-7.7634e-06
4.90789e-06
-7.60533e-06
1.99874e-06
-7.51068e-06
-1.10279e-06
-7.45501e-06
-4.48402e-06
-7.41534e-06
-8.25492e-06
-7.38593e-06
-1.25597e-05
-7.32693e-06
-1.75716e-05
-7.12203e-06
-2.35664e-05
-6.58474e-06
-3.10124e-05
-4.87618e-06
-4.09708e-05
-5.45896e-05
1.17438e-06
7.12077e-06
1.53538e-06
4.54687e-06
1.72231e-06
1.8118e-06
1.7511e-06
-1.13161e-06
1.62317e-06
-4.35611e-06
1.3268e-06
-7.95858e-06
8.35085e-07
-1.2068e-05
1.3167e-07
-1.68682e-05
-7.57366e-07
-2.26774e-05
-1.70799e-06
-3.00618e-05
-2.24805e-06
-4.04307e-05
-5.68376e-05
1.02807e-05
6.36595e-06
1.07806e-05
4.04692e-06
1.10459e-05
1.54653e-06
1.10787e-05
-1.16441e-06
1.08616e-05
-4.13903e-06
1.03536e-05
-7.45068e-06
9.48182e-06
-1.11962e-05
8.15357e-06
-1.55399e-05
6.27602e-06
-2.07999e-05
3.83488e-06
-2.76207e-05
1.22165e-06
-3.78175e-05
-5.5616e-05
1.95694e-05
5.43129e-06
2.02158e-05
3.40053e-06
2.05924e-05
1.1699e-06
2.06928e-05
-1.26487e-06
2.04856e-05
-3.93185e-06
1.99059e-05
-6.87096e-06
1.88314e-05
-1.01218e-05
1.70837e-05
-1.37923e-05
1.44169e-05
-1.81331e-05
1.05775e-05
-2.37813e-05
5.66874e-06
-3.29089e-05
-4.99473e-05
2.93684e-05
4.41482e-06
3.01037e-05
2.66523e-06
3.05789e-05
6.94674e-07
3.07835e-05
-1.46947e-06
3.06749e-05
-3.82325e-06
3.01692e-05
-6.36524e-06
2.91017e-05
-9.05442e-06
2.72161e-05
-1.19067e-05
2.41011e-05
-1.50181e-05
1.92515e-05
-1.89318e-05
1.18538e-05
-2.55111e-05
-3.80936e-05
3.99571e-05
3.49945e-06
4.06598e-05
1.96261e-06
4.11741e-05
1.80318e-07
4.14875e-05
-1.78287e-06
4.15479e-05
-3.88361e-06
4.12575e-05
-6.07485e-06
4.04245e-05
-8.2215e-06
3.87489e-05
-1.02312e-05
3.56838e-05
-1.1953e-05
3.04894e-05
-1.37374e-05
2.06391e-05
-1.5661e-05
-1.74546e-05
5.1424e-05
2.88741e-06
5.19631e-05
1.4235e-06
5.24554e-05
-3.11951e-07
5.28793e-05
-2.20675e-06
5.31676e-05
-4.17191e-06
5.3211e-05
-6.11826e-06
5.28155e-05
-7.82608e-06
5.17109e-05
-9.1265e-06
4.93741e-05
-9.61621e-06
4.48723e-05
-9.2356e-06
3.45532e-05
-5.34191e-06
1.70987e-05
5.11208e-06
-5.11182e-06
8.71713e-06
-3.60489e-06
1.14341e-05
-2.71678e-06
1.29345e-05
-1.50021e-06
1.31087e-05
-1.73972e-07
1.16732e-05
1.43582e-06
7.58585e-06
4.08745e-06
1.50478e-06
6.08133e-06
-1.09281e-05
1.24328e-05
-2.54249e-05
1.44968e-05
-3.65251e-05
1.11001e-05
8.58307e-06
-4.51082e-05
1.57306e-06
-6.68467e-06
3.95611e-06
-5.98789e-06
4.25924e-06
-3.01967e-06
2.68255e-06
7.66171e-08
-1.05727e-06
3.56611e-06
-8.36771e-06
8.74637e-06
-1.9637e-05
1.53568e-05
-3.18431e-05
1.82875e-05
-3.81227e-05
1.87124e-05
-4.06218e-05
1.69959e-05
-4.29906e-05
1.34689e-05
1.05762e-05
-4.49838e-05
1.36435e-06
-8.04894e-06
1.19613e-06
-5.81959e-06
-8.48144e-07
-9.75306e-07
-5.64794e-06
4.87652e-06
-1.40196e-05
1.19378e-05
-2.36235e-05
1.83503e-05
-2.96989e-05
2.14322e-05
-3.29038e-05
2.14924e-05
-3.42448e-05
2.00535e-05
-3.4706e-05
1.7457e-05
-3.54058e-05
1.41687e-05
1.12258e-05
-3.60553e-05
-1.58944e-06
-6.45943e-06
-4.40041e-06
-3.00852e-06
-8.94763e-06
3.572e-06
-1.53426e-05
1.12716e-05
-2.15573e-05
1.81526e-05
-2.54227e-05
2.22157e-05
-2.70019e-05
2.30114e-05
-2.7415e-05
2.19054e-05
-2.735e-05
1.99884e-05
-2.71823e-05
1.72893e-05
-2.7226e-05
1.42124e-05
1.12681e-05
-2.72684e-05
-3.57953e-06
-2.87972e-06
-8.42917e-06
1.84128e-06
-1.34975e-05
8.6404e-06
-1.79418e-05
1.5716e-05
-2.06194e-05
2.08303e-05
-2.12716e-05
2.28679e-05
-2.08812e-05
2.26211e-05
-2.01535e-05
2.11778e-05
-1.92475e-05
1.90823e-05
-1.84944e-05
1.65363e-05
-1.80208e-05
1.37388e-05
1.09335e-05
-1.76862e-05
-4.86058e-06
1.98121e-06
-9.85397e-06
6.83487e-06
-1.37733e-05
1.25599e-05
-1.58931e-05
1.78359e-05
-1.61095e-05
2.10469e-05
-1.51235e-05
2.1882e-05
-1.36997e-05
2.11975e-05
-1.22252e-05
1.97033e-05
-1.08783e-05
1.77354e-05
-9.78599e-06
1.5444e-05
-8.99031e-06
1.29431e-05
1.03579e-05
-8.41474e-06
-5.31877e-06
7.30038e-06
-9.54005e-06
1.10564e-05
-1.18798e-05
1.48998e-05
-1.20765e-05
1.80329e-05
-1.06854e-05
1.96559e-05
-8.61699e-06
1.98137e-05
-6.44514e-06
1.90257e-05
-4.42783e-06
1.7686e-05
-2.68386e-06
1.59915e-05
-1.26947e-06
1.40296e-05
-1.8882e-07
1.18625e-05
9.55728e-06
6.11806e-07
-5.33051e-06
1.2631e-05
-8.44221e-06
1.41683e-05
-9.11905e-06
1.55768e-05
-7.73153e-06
1.66455e-05
-5.16305e-06
1.70875e-05
-2.22718e-06
1.68779e-05
6.20143e-07
1.61784e-05
3.17056e-06
1.51356e-05
5.33949e-06
1.38226e-05
7.10401e-06
1.22651e-05
8.48275e-06
1.04837e-05
8.51409e-06
9.52595e-06
-4.71458e-06
1.73458e-05
-6.54042e-06
1.59942e-05
-5.47467e-06
1.45111e-05
-2.68986e-06
1.38607e-05
9.10601e-07
1.34871e-05
4.62769e-06
1.31609e-05
8.08308e-06
1.2723e-05
1.11129e-05
1.21059e-05
1.36636e-05
1.12718e-05
1.57385e-05
1.01903e-05
1.73768e-05
8.84537e-06
7.25618e-06
1.86348e-05
-4.06423e-06
2.14099e-05
-3.11471e-06
1.50447e-05
4.47968e-07
1.09484e-05
4.72733e-06
9.58132e-06
9.20889e-06
9.0055e-06
1.34541e-05
8.9157e-06
1.7229e-05
8.9481e-06
2.04559e-05
8.87895e-06
2.31349e-05
8.5929e-06
2.53021e-05
8.02313e-06
2.702e-05
7.12741e-06
5.92413e-06
2.83521e-05
6.27934e-07
2.07819e-05
6.14042e-06
9.5321e-06
1.19967e-05
5.09204e-06
1.73227e-05
4.25534e-06
2.20007e-05
4.32745e-06
2.60211e-05
4.89531e-06
2.94229e-05
5.54629e-06
3.2252e-05
6.04988e-06
3.45639e-05
6.28094e-06
3.64182e-05
6.16886e-06
3.78907e-05
5.65496e-06
4.77264e-06
3.90422e-05
2.04736e-05
3.08136e-07
2.87847e-05
1.22086e-06
3.38474e-05
2.92848e-08
3.7698e-05
4.04676e-07
4.06625e-05
1.36295e-06
4.30946e-05
2.46315e-06
4.51339e-05
3.50696e-06
4.68222e-05
4.36165e-06
4.81903e-05
4.91278e-06
4.92716e-05
5.08758e-06
5.01309e-05
4.79562e-06
5.08126e-05
4.091e-06
-5.11418e-05
6.03355e-06
-5.51971e-05
4.05526e-06
-5.7089e-05
1.89189e-06
-5.71935e-05
1.04465e-07
-5.54725e-05
-1.72105e-06
-5.20339e-05
-3.43859e-06
-4.66133e-05
-5.42062e-06
-3.92482e-05
-7.36512e-06
-2.97433e-05
-9.50492e-06
-1.83376e-05
-1.14057e-05
-6.97802e-06
-1.13596e-05
-6.97803e-06
-4.66611e-05
7.71086e-06
-4.74991e-05
4.89322e-06
-4.78257e-05
2.21845e-06
-4.74308e-05
-2.90368e-07
-4.63584e-05
-2.79354e-06
-4.43297e-05
-5.4673e-06
-4.13387e-05
-8.41158e-06
-3.70059e-05
-1.16979e-05
-3.11686e-05
-1.53423e-05
-2.35178e-05
-1.90565e-05
-1.31081e-05
-2.17693e-05
-2.00861e-05
-3.66203e-05
8.2758e-06
-3.70808e-05
5.3537e-06
-3.73224e-05
2.46009e-06
-3.71529e-05
-4.59896e-07
-3.64177e-05
-3.52877e-06
-3.50465e-05
-6.83852e-06
-3.29347e-05
-1.05234e-05
-2.99507e-05
-1.46818e-05
-2.60076e-05
-1.92854e-05
-2.06256e-05
-2.44385e-05
-1.27861e-05
-2.96088e-05
-3.28723e-05
-2.72982e-05
8.30562e-06
-2.72734e-05
5.32889e-06
-2.71272e-05
2.31393e-06
-2.67856e-05
-8.01515e-07
-2.61869e-05
-4.12747e-06
-2.52567e-05
-7.76877e-06
-2.39013e-05
-1.18788e-05
-2.19918e-05
-1.65913e-05
-1.93118e-05
-2.19654e-05
-1.53694e-05
-2.83809e-05
-9.40006e-06
-3.55782e-05
-4.22723e-05
-1.74588e-05
8.07821e-06
-1.72936e-05
5.16372e-06
-1.71361e-05
2.15645e-06
-1.69294e-05
-1.00823e-06
-1.66288e-05
-4.42813e-06
-1.61827e-05
-8.21486e-06
-1.55318e-05
-1.25297e-05
-1.46114e-05
-1.75118e-05
-1.32162e-05
-2.33606e-05
-1.1123e-05
-3.04741e-05
-7.44003e-06
-3.92612e-05
-4.97124e-05
-8.01922e-06
7.68269e-06
-7.76273e-06
4.90723e-06
-7.6047e-06
1.99842e-06
-7.51011e-06
-1.10283e-06
-7.45446e-06
-4.48379e-06
-7.41486e-06
-8.25447e-06
-7.38548e-06
-1.2559e-05
-7.32657e-06
-1.75707e-05
-7.12174e-06
-2.35654e-05
-6.58458e-06
-3.10113e-05
-4.87609e-06
-4.09697e-05
-5.45884e-05
1.17472e-06
7.11978e-06
1.5357e-06
4.54625e-06
1.72262e-06
1.81149e-06
1.75141e-06
-1.13163e-06
1.62348e-06
-4.35588e-06
1.32712e-06
-7.95812e-06
8.35372e-07
-1.20673e-05
1.3193e-07
-1.68673e-05
-7.57185e-07
-2.26763e-05
-1.70786e-06
-3.00606e-05
-2.248e-06
-4.04295e-05
-5.68364e-05
1.02807e-05
6.36498e-06
1.07807e-05
4.04629e-06
1.1046e-05
1.54622e-06
1.10788e-05
-1.16444e-06
1.08617e-05
-4.13882e-06
1.03538e-05
-7.45023e-06
9.48199e-06
-1.11956e-05
8.15373e-06
-1.5539e-05
6.27616e-06
-2.07987e-05
3.83495e-06
-2.76194e-05
1.22167e-06
-3.78163e-05
-5.56148e-05
1.95694e-05
5.43037e-06
2.02157e-05
3.39993e-06
2.05923e-05
1.16959e-06
2.06928e-05
-1.26492e-06
2.04856e-05
-3.93166e-06
1.99059e-05
-6.87054e-06
1.88315e-05
-1.01212e-05
1.70838e-05
-1.37914e-05
1.4417e-05
-1.8132e-05
1.05776e-05
-2.37801e-05
5.66876e-06
-3.29076e-05
-4.99461e-05
2.93684e-05
4.414e-06
3.01037e-05
2.66469e-06
3.05789e-05
6.94391e-07
3.07835e-05
-1.46951e-06
3.06748e-05
-3.82307e-06
3.01691e-05
-6.36484e-06
2.91017e-05
-9.05378e-06
2.72162e-05
-1.19058e-05
2.41012e-05
-1.5017e-05
1.92516e-05
-1.89305e-05
1.18538e-05
-2.55098e-05
-3.80924e-05
3.99574e-05
3.4988e-06
4.06599e-05
1.96218e-06
4.11741e-05
1.80112e-07
4.14875e-05
-1.78286e-06
4.15478e-05
-3.8834e-06
4.12574e-05
-6.07445e-06
4.04245e-05
-8.22087e-06
3.87489e-05
-1.02303e-05
3.56838e-05
-1.19519e-05
3.04894e-05
-1.37361e-05
2.06391e-05
-1.56596e-05
-1.74533e-05
5.14244e-05
2.88698e-06
5.19634e-05
1.42323e-06
5.24555e-05
-3.12041e-07
5.28793e-05
-2.20667e-06
5.31676e-05
-4.17166e-06
5.3211e-05
-6.11782e-06
5.28155e-05
-7.82542e-06
5.17108e-05
-9.1256e-06
4.9374e-05
-9.61509e-06
4.48723e-05
-9.23432e-06
3.45532e-05
-5.34056e-06
1.71e-05
5.11213e-06
-5.11205e-06
8.71732e-06
-3.60515e-06
1.14343e-05
-2.71698e-06
1.29348e-05
-1.50035e-06
1.3109e-05
-1.74182e-07
1.16741e-05
1.43505e-06
7.58756e-06
4.08645e-06
1.5063e-06
6.08136e-06
-1.0926e-05
1.24321e-05
-2.54237e-05
1.44978e-05
-3.65253e-05
1.11014e-05
8.58372e-06
-4.5109e-05
1.57321e-06
-6.68516e-06
3.95669e-06
-5.98862e-06
4.26022e-06
-3.02035e-06
2.68395e-06
7.59353e-08
-1.05518e-06
3.56509e-06
-8.36484e-06
8.74474e-06
-1.96341e-05
1.53557e-05
-3.18412e-05
1.82885e-05
-3.81227e-05
1.87136e-05
-4.06225e-05
1.69976e-05
-4.29917e-05
1.34706e-05
1.05771e-05
-4.49851e-05
1.36494e-06
-8.04998e-06
1.1976e-06
-5.82119e-06
-8.45627e-07
-9.77054e-07
-5.64384e-06
4.87423e-06
-1.40144e-05
1.19357e-05
-2.36198e-05
1.83501e-05
-2.96979e-05
2.14338e-05
-3.29042e-05
2.14947e-05
-3.42464e-05
2.00558e-05
-3.47081e-05
1.74593e-05
-3.54074e-05
1.41699e-05
1.12267e-05
-3.6057e-05
-1.58841e-06
-6.46142e-06
-4.39808e-06
-3.01141e-06
-8.944e-06
3.56895e-06
-1.53389e-05
1.12692e-05
-2.15552e-05
1.8152e-05
-2.54226e-05
2.22175e-05
-2.7003e-05
2.30141e-05
-2.74165e-05
2.19082e-05
-2.73517e-05
1.99909e-05
-2.71838e-05
1.72914e-05
-2.72276e-05
1.42136e-05
1.1269e-05
-2.72699e-05
-3.57866e-06
-2.88253e-06
-8.42758e-06
1.83771e-06
-1.34958e-05
8.6374e-06
-1.79412e-05
1.57146e-05
-2.06202e-05
2.08311e-05
-2.12731e-05
2.28704e-05
-2.08829e-05
2.26239e-05
-2.01552e-05
2.11805e-05
-1.92489e-05
1.90847e-05
-1.84956e-05
1.65381e-05
-1.8022e-05
1.374e-05
1.09343e-05
-1.76873e-05
-4.86004e-06
1.97814e-06
-9.85391e-06
6.83187e-06
-1.3774e-05
1.25577e-05
-1.58945e-05
1.78353e-05
-1.61114e-05
2.1048e-05
-1.51251e-05
2.18843e-05
-1.37012e-05
2.12e-05
-1.22264e-05
1.97056e-05
-1.08793e-05
1.77375e-05
-9.78679e-06
1.54456e-05
-8.99106e-06
1.29442e-05
1.03586e-05
-8.41543e-06
-5.31931e-06
7.29771e-06
-9.54122e-06
1.10541e-05
-1.18815e-05
1.48982e-05
-1.20786e-05
1.80325e-05
-1.06873e-05
1.96569e-05
-8.61845e-06
1.98155e-05
-6.44618e-06
1.90278e-05
-4.42856e-06
1.7688e-05
-2.68434e-06
1.59933e-05
-1.2698e-06
1.4031e-05
-1.8909e-07
1.18635e-05
9.55796e-06
6.11558e-07
-5.33139e-06
1.26294e-05
-8.4439e-06
1.41666e-05
-9.12114e-06
1.55756e-05
-7.73361e-06
1.66451e-05
-5.16475e-06
1.70881e-05
-2.22837e-06
1.68792e-05
6.19413e-07
1.618e-05
3.1702e-06
1.51373e-05
5.33938e-06
1.38241e-05
7.10405e-06
1.22663e-05
8.48286e-06
1.04847e-05
8.51474e-06
9.52608e-06
-4.71576e-06
1.73451e-05
-6.54213e-06
1.59931e-05
-5.47665e-06
1.45101e-05
-2.69176e-06
1.38602e-05
9.09053e-07
1.34873e-05
4.62662e-06
1.31617e-05
8.08247e-06
1.27242e-05
1.11126e-05
1.21071e-05
1.36637e-05
1.12731e-05
1.57387e-05
1.01913e-05
1.73772e-05
8.8462e-06
7.25676e-06
1.86351e-05
-4.065e-06
2.14102e-05
-3.11589e-06
1.5044e-05
4.46471e-07
1.09478e-05
4.72578e-06
9.58093e-06
9.20756e-06
9.00553e-06
1.34531e-05
8.91615e-06
1.72284e-05
8.94887e-06
2.04556e-05
8.87986e-06
2.31349e-05
8.59384e-06
2.53022e-05
8.02397e-06
2.70203e-05
7.12808e-06
5.92462e-06
2.83525e-05
6.27793e-07
2.07824e-05
6.13978e-06
9.53202e-06
1.19957e-05
5.0918e-06
1.73215e-05
4.25513e-06
2.19995e-05
4.32748e-06
2.60201e-05
4.89563e-06
2.94221e-05
5.54683e-06
3.22514e-05
6.05054e-06
3.45636e-05
6.28162e-06
3.64181e-05
6.16947e-06
3.78908e-05
5.65545e-06
4.77297e-06
3.90424e-05
2.04734e-05
3.08962e-07
2.87842e-05
1.22119e-06
3.38465e-05
2.94455e-08
3.76969e-05
4.04791e-07
4.06612e-05
1.36314e-06
4.30933e-05
2.46347e-06
4.51328e-05
3.50739e-06
4.68212e-05
4.36212e-06
4.81896e-05
4.91323e-06
4.92711e-05
5.08794e-06
5.01307e-05
4.79587e-06
5.08125e-05
4.0911e-06
-5.11432e-05
6.03409e-06
-5.51987e-05
4.05557e-06
-5.70908e-05
1.89205e-06
-5.71954e-05
1.04509e-07
-5.54743e-05
-1.7211e-06
-5.20356e-05
-3.43871e-06
-4.66148e-05
-5.42078e-06
-3.92495e-05
-7.36532e-06
-2.97444e-05
-9.50516e-06
-1.83385e-05
-1.14059e-05
-6.97853e-06
-1.136e-05
-6.97855e-06
-4.66626e-05
7.7116e-06
-4.75007e-05
4.89362e-06
-4.78273e-05
2.21864e-06
-4.74324e-05
-2.90356e-07
-4.63599e-05
-2.79367e-06
-4.43311e-05
-5.46754e-06
-4.13399e-05
-8.41192e-06
-3.7007e-05
-1.16983e-05
-3.11694e-05
-1.53428e-05
-2.35183e-05
-1.9057e-05
-1.31084e-05
-2.17699e-05
-2.0087e-05
-3.66219e-05
8.27644e-06
-3.70823e-05
5.35406e-06
-3.73239e-05
2.46023e-06
-3.71543e-05
-4.59969e-07
-3.6419e-05
-3.52902e-06
-3.50476e-05
-6.83892e-06
-3.29356e-05
-1.05239e-05
-2.99515e-05
-1.46824e-05
-2.60082e-05
-1.92861e-05
-2.0626e-05
-2.44392e-05
-1.27862e-05
-2.96096e-05
-3.28732e-05
-2.72996e-05
8.30617e-06
-2.72747e-05
5.32917e-06
-2.71285e-05
2.31396e-06
-2.67868e-05
-8.01697e-07
-2.6188e-05
-4.12784e-06
-2.52576e-05
-7.7693e-06
-2.3902e-05
-1.18794e-05
-2.19924e-05
-1.65921e-05
-1.93123e-05
-2.19663e-05
-1.53697e-05
-2.83818e-05
-9.40023e-06
-3.55792e-05
-4.22734e-05
-1.74599e-05
8.07869e-06
-1.72946e-05
5.16392e-06
-1.71371e-05
2.1564e-06
-1.69303e-05
-1.0085e-06
-1.66295e-05
-4.42859e-06
-1.61834e-05
-8.21549e-06
-1.55324e-05
-1.25304e-05
-1.46118e-05
-1.75127e-05
-1.32165e-05
-2.33615e-05
-1.11232e-05
-3.04752e-05
-7.44006e-06
-3.92623e-05
-4.97135e-05
-8.01988e-06
7.6831e-06
-7.76334e-06
4.90738e-06
-7.60528e-06
1.99832e-06
-7.51063e-06
-1.10315e-06
-7.45494e-06
-4.48431e-06
-7.41526e-06
-8.25516e-06
-7.38583e-06
-1.25599e-05
-7.32682e-06
-1.75717e-05
-7.12193e-06
-2.35665e-05
-6.58465e-06
-3.10124e-05
-4.87612e-06
-4.09708e-05
-5.45896e-05
1.17449e-06
7.12016e-06
1.53548e-06
4.54637e-06
1.72242e-06
1.81137e-06
1.75122e-06
-1.13197e-06
1.62331e-06
-4.35642e-06
1.32696e-06
-7.95884e-06
8.35259e-07
-1.20682e-05
1.31849e-07
-1.68683e-05
-7.57197e-07
-2.26774e-05
-1.70784e-06
-3.00618e-05
-2.24793e-06
-4.04307e-05
-5.68375e-05
1.02809e-05
6.36535e-06
1.07808e-05
4.04641e-06
1.10461e-05
1.5461e-06
1.10789e-05
-1.16478e-06
1.08618e-05
-4.13936e-06
1.03539e-05
-7.45095e-06
9.48208e-06
-1.11964e-05
8.15383e-06
-1.55401e-05
6.27626e-06
-2.07999e-05
3.83508e-06
-2.76206e-05
1.22177e-06
-3.78174e-05
-5.56158e-05
1.95697e-05
5.43071e-06
2.02161e-05
3.40003e-06
2.05927e-05
1.16947e-06
2.06932e-05
-1.26526e-06
2.0486e-05
-3.93219e-06
1.99062e-05
-6.87125e-06
1.88318e-05
-1.0122e-05
1.70841e-05
-1.37924e-05
1.44172e-05
-1.81331e-05
1.05778e-05
-2.37812e-05
5.66892e-06
-3.29087e-05
-4.99469e-05
2.93689e-05
4.41427e-06
3.01042e-05
2.66475e-06
3.05794e-05
6.94251e-07
3.0784e-05
-1.46985e-06
3.06753e-05
-3.82359e-06
3.01696e-05
-6.36553e-06
2.91021e-05
-9.05463e-06
2.72165e-05
-1.19068e-05
2.41015e-05
-1.50181e-05
1.92518e-05
-1.89316e-05
1.1854e-05
-2.55108e-05
-3.8093e-05
3.99577e-05
3.49896e-06
4.06603e-05
1.96216e-06
4.11747e-05
1.79913e-07
4.1488e-05
-1.78324e-06
4.15484e-05
-3.88394e-06
4.1258e-05
-6.07512e-06
4.0425e-05
-8.22168e-06
3.87494e-05
-1.02312e-05
3.56841e-05
-1.19529e-05
3.04897e-05
-1.37372e-05
2.06393e-05
-1.56605e-05
-1.74538e-05
5.14246e-05
2.88695e-06
5.19637e-05
1.42307e-06
5.24559e-05
-3.12352e-07
5.28798e-05
-2.20712e-06
5.31681e-05
-4.17223e-06
5.32115e-05
-6.1185e-06
5.2816e-05
-7.82621e-06
5.17113e-05
-9.12648e-06
4.93744e-05
-9.61603e-06
4.48725e-05
-9.23528e-06
3.45534e-05
-5.34137e-06
1.70995e-05
6.55541e-05
4.03617e-06
-6.92819e-05
6.49133e-05
1.8613e-06
6.36148e-05
1.3271e-06
6.29002e-05
1.11865e-06
6.26802e-05
1.58248e-06
6.27493e-05
2.39389e-06
6.29364e-05
3.31997e-06
6.31229e-05
4.17559e-06
6.32467e-05
4.78967e-06
6.32931e-05
5.0419e-06
6.33146e-05
4.77497e-06
4.05836e-06
6.3348e-05
8.40524e-05
3.1293e-06
-8.31456e-05
8.37501e-05
2.16357e-06
8.31114e-05
1.96573e-06
8.2275e-05
1.95503e-06
8.14478e-05
2.40965e-06
8.06465e-05
3.19518e-06
7.98413e-05
4.12516e-06
7.90039e-05
5.01299e-06
7.81355e-05
5.65804e-06
7.72764e-05
5.90098e-06
7.65314e-05
5.51999e-06
4.59659e-06
7.59932e-05
9.69691e-05
2.09456e-06
-9.59344e-05
9.73113e-05
1.82131e-06
9.72791e-05
1.99781e-06
9.68756e-05
2.35849e-06
9.61859e-05
3.09934e-06
9.52496e-05
4.13147e-06
9.40957e-05
5.27909e-06
9.27701e-05
6.33853e-06
9.13547e-05
7.07338e-06
8.99842e-05
7.27146e-06
8.8847e-05
6.65718e-06
5.27246e-06
8.81712e-05
0.000108735
-0.000108092
1.45105e-06
0.000109027
1.52984e-06
0.000108981
2.04382e-06
0.000108555
2.78413e-06
0.000107761
3.89283e-06
0.000106639
5.25391e-06
0.000105252
6.6665e-06
0.000103705
7.88472e-06
0.000102159
8.62002e-06
0.000100845
8.58555e-06
0.000100033
7.46903e-06
0.000100164
5.14083e-06