/*--------------------------------*- C++ -*----------------------------------*\
| =========                 |                                                 |
| \\      /  F ield         | OpenFOAM: The Open Source CFD Toolbox           |
|  \\    /   O peration     | Version:  v1912                                 |
|   \\  /    A nd           | Website:  www.openfoam.com                      |
|    \\/     M anipulation  |                                                 |
\*---------------------------------------------------------------------------*/
FoamFile
{
    version     2.0;
    format      ascii;
    class       volVectorField;
    location    "500";
    object      U;
}
// * * * * * * * * * * * * * * * * * * * * * * * * * * * * * * * * * * * * * //

dimensions      [0 1 -1 0 0 0 0];


internalField   nonuniform List<vector> 
3072
(
(0.296533 2.21576 0)
(0.315868 1.9343 0)
(0.400627 1.76687 1.42544e-19)
(0.508829 1.65575 6.88412e-19)
(0.63193 1.58315 -1.14851e-18)
(0.75399 1.5295 6.26817e-19)
(0.87903 1.60336 3.61854e-19)
(1.18303 1.70998 1.31823e-18)
(2.00368 1.43166 -4.617e-19)
(2.86299 1.60485 1.08988e-18)
(3.1279 2.00194 8.95202e-19)
(3.39543 2.12907 7.5993e-19)
(-0.37147 2.74064 -2.68724e-19)
(-0.216277 2.37798 -6.29676e-19)
(0.0390618 2.33355 5.31839e-19)
(0.312907 2.33079 0)
(0.609758 2.38504 1.12879e-18)
(1.03458 2.39333 -1.50554e-18)
(1.86113 2.42938 0)
(2.6148 2.707 0)
(2.97674 2.71688 0)
(3.1293 2.77681 8.0322e-19)
(3.16341 2.79776 -2.85337e-18)
(3.2453 2.78455 3.42722e-19)
(-0.347613 2.9898 1.76201e-19)
(-0.114952 2.69506 0)
(0.295253 2.72157 0)
(0.769128 2.74155 -3.79385e-18)
(1.40462 2.81252 1.41507e-18)
(2.14566 2.96235 -2.13528e-18)
(2.67197 2.994 1.73573e-18)
(2.98981 2.9833 0)
(3.15286 2.86055 0)
(3.24968 2.75317 -1.09338e-18)
(3.28678 2.6707 -1.09109e-18)
(3.35389 2.58494 3.82986e-18)
(-0.318143 3.31927 -1.29268e-18)
(0.0643751 3.11081 -2.09832e-18)
(0.626176 3.20574 1.90266e-18)
(1.27629 3.26971 -1.91069e-18)
(1.93586 3.33387 3.69025e-18)
(2.47284 3.32118 -3.56024e-18)
(2.79143 3.20381 -2.10281e-18)
(2.97266 3.0729 -6.62673e-18)
(3.08711 2.91278 -3.20948e-19)
(3.1515 2.78787 3.65368e-18)
(3.19167 2.68122 4.09487e-18)
(3.24473 2.57938 -3.23973e-18)
(-0.10457 3.53857 0)
(0.334822 3.48884 1.24484e-18)
(0.937178 3.59868 -2.93322e-18)
(1.57774 3.63794 3.27471e-18)
(2.13595 3.59705 6.18921e-19)
(2.51131 3.46194 2.07324e-18)
(2.72953 3.28665 2.3329e-18)
(2.8674 3.11283 2.4269e-18)
(2.95462 2.94224 -5.20843e-18)
(3.01599 2.79101 4.38203e-18)
(3.06618 2.65922 -5.91113e-18)
(3.12041 2.538 7.79786e-18)
(0.10506 3.73751 -4.65724e-18)
(0.586718 3.78738 1.80714e-18)
(1.15312 3.87717 5.33856e-18)
(1.70855 3.85257 0)
(2.1437 3.72534 -7.10083e-18)
(2.42595 3.53773 7.82545e-18)
(2.606 3.33429 0)
(2.72915 3.13703 -5.91209e-18)
(2.81832 2.95122 5.01943e-18)
(2.88741 2.78428 0)
(2.9469 2.63637 2.88295e-19)
(3.00537 2.50201 4.55429e-18)
(0.324882 3.90259 0)
(0.791536 4.04809 -4.18385e-18)
(1.28048 4.08502 3.88981e-18)
(1.726 4.00135 0)
(2.06618 3.82422 -4.43904e-18)
(2.30113 3.60638 7.22305e-19)
(2.46575 3.38156 6.27252e-18)
(2.58797 3.16626 5.81815e-18)
(2.68327 2.9663 -5.12596e-18)
(2.76154 2.78507 5.09608e-18)
(2.83019 2.62245 -4.41026e-18)
(2.89486 2.47513 -1.23736e-17)
(0.533571 4.08714 0)
(0.937986 4.29839 3.32312e-18)
(1.32862 4.26478 -4.80088e-18)
(1.67647 4.13617 4.81565e-18)
(1.95306 3.92478 0)
(2.16233 3.68223 -6.29984e-18)
(2.32211 3.43736 6.272e-18)
(2.44852 3.204 1.28519e-19)
(2.55198 2.98772 -1.0572e-17)
(2.63945 2.79083 -4.9764e-18)
(2.71634 2.61321 -2.81148e-19)
(2.78698 2.45258 8.99233e-18)
(0.705121 4.25717 0)
(1.02847 4.53063 -3.69977e-18)
(1.3148 4.41877 -5.21019e-18)
(1.583 4.24647 -3.75061e-18)
(1.81435 4.00623 7.66468e-18)
(2.00745 3.74228 0)
(2.16707 3.47941 0)
(2.30038 3.22977 0)
(2.41331 2.99856 0)
(2.51042 2.78773 4.96893e-18)
(2.59562 2.59717 -5.02166e-18)
(2.67249 2.42496 4.81873e-18)
(0.837827 4.51133 0)
(1.02428 4.72014 2.62372e-18)
(1.21139 4.50235 -5.99726e-19)
(1.42805 4.27013 4.34332e-18)
(1.63147 4.00336 4.34531e-18)
(1.81672 3.72555 -6.99198e-18)
(1.98117 3.45507 0)
(2.1251 3.20035 -2.14305e-19)
(2.25053 2.96473 -1.75521e-17)
(2.35985 2.7494 0)
(2.45549 2.55408 1.10129e-17)
(2.54057 2.37697 -5.17474e-18)
(0.986271 4.56344 0)
(0.934388 4.68335 3.08099e-18)
(1.01538 4.37455 9.01402e-18)
(1.19431 4.08418 -7.70118e-18)
(1.38519 3.81518 -1.0766e-17)
(1.57421 3.55267 1.70631e-17)
(1.75119 3.30248 -1.92828e-19)
(1.9115 3.06776 -6.72451e-18)
(2.05378 2.84915 5.52061e-18)
(2.17902 2.64732 -1.18008e-17)
(2.28831 2.46214 -1.64308e-17)
(2.38448 2.29218 1.66816e-17)
(0.402502 4.17845 -1.83076e-18)
(0.55934 4.09776 -1.21441e-17)
(0.68376 3.79656 2.33956e-18)
(0.875192 3.55322 0)
(1.08722 3.36337 0)
(1.29654 3.17556 3.56084e-19)
(1.49239 2.98981 1.8303e-17)
(1.67124 2.80878 1.13185e-17)
(1.83157 2.63368 0)
(1.97393 2.46689 1.07111e-17)
(2.09813 2.30957 0)
(2.20697 2.16128 4.90688e-19)
(3.64761 2.23578 -2.02467e-20)
(3.8734 2.1579 -2.89426e-19)
(4.03548 2.09017 -3.78444e-19)
(4.1203 1.93593 -5.90547e-19)
(4.13941 1.79982 -2.98797e-19)
(4.08982 1.60638 0)
(3.96717 1.42885 0)
(3.76151 1.22597 8.10915e-19)
(3.48256 1.02786 -9.5086e-19)
(3.10006 0.786287 0)
(2.68097 0.376367 0)
(2.53496 -0.22413 -6.60482e-20)
(3.34636 2.75732 1.71765e-18)
(3.43616 2.71254 0)
(3.52982 2.63051 -8.87055e-19)
(3.62071 2.50915 5.29429e-19)
(3.69922 2.35179 3.05123e-19)
(3.73771 2.19209 2.68963e-18)
(3.7326 2.03589 -4.37694e-18)
(3.67533 1.89233 6.82162e-19)
(3.56499 1.78085 0)
(3.32433 1.67757 0)
(3.04913 1.53723 0)
(3.19037 1.02078 7.31711e-19)
(3.42036 2.49793 1.62531e-18)
(3.48963 2.40786 -4.39838e-18)
(3.55853 2.31403 1.23132e-18)
(3.61759 2.21608 2.97579e-18)
(3.65775 2.12053 -2.99776e-18)
(3.67381 2.02867 0)
(3.65965 1.95207 0)
(3.61632 1.90099 -2.38632e-19)
(3.55118 1.87864 1.09842e-18)
(3.41582 1.87079 0)
(3.19929 1.86025 0)
(3.41268 1.7408 -4.70994e-19)
(3.29687 2.48077 3.58326e-19)
(3.35016 2.3852 4.36847e-18)
(3.4023 2.29063 3.08419e-18)
(3.45019 2.19769 -3.06385e-18)
(3.4892 2.11091 0)
(3.51483 2.03598 1.75999e-18)
(3.52309 1.98083 0)
(3.51693 1.9551 2.51159e-18)
(3.4929 1.95918 -7.75809e-19)
(3.42578 2.01687 0)
(3.24888 2.10085 -5.53373e-19)
(3.5471 2.15037 6.63607e-19)
(3.17448 2.42468 -3.16412e-18)
(3.22918 2.31851 0)
(3.28306 2.21869 0)
(3.33373 2.12649 0)
(3.37853 2.04561 0)
(3.41588 1.98085 -3.18443e-18)
(3.44426 1.94077 -1.4234e-19)
(3.46292 1.93228 -1.41688e-18)
(3.47848 1.96463 0)
(3.4757 2.0536 -1.23882e-18)
(3.36115 2.19723 4.93711e-19)
(3.77394 2.39681 -1.69877e-19)
(3.06277 2.37863 -2.50406e-19)
(3.11993 2.26508 -7.43851e-18)
(3.17645 2.16089 3.491e-18)
(3.23137 2.0671 3.5743e-21)
(3.2838 1.98666 2.27254e-19)
(3.33344 1.92393 4.92166e-18)
(3.38114 1.88514 -1.56279e-19)
(3.42891 1.87751 -5.44609e-18)
(3.47877 1.912 -2.18007e-18)
(3.53297 2.00595 1.09259e-18)
(3.47946 2.19594 -1.34506e-18)
(3.93824 2.5178 -5.43811e-19)
(2.95706 2.34082 1.18115e-17)
(3.01804 2.21814 3.85936e-18)
(3.07834 2.10663 0)
(3.13824 2.00704 0)
(3.19832 1.92163 2.13887e-19)
(3.25984 1.85399 -3.55994e-18)
(3.32516 1.80926 5.54581e-18)
(3.39789 1.79431 -1.29988e-19)
(3.48149 1.82031 1.85766e-18)
(3.58219 1.90714 0)
(3.60372 2.09665 -2.41411e-19)
(4.09821 2.50532 -7.98125e-20)
(2.8535 2.30673 -4.31465e-18)
(2.91773 2.17399 -3.97022e-18)
(2.98102 2.05358 4.25374e-18)
(3.04471 1.94577 -3.96779e-18)
(3.11051 1.85204 5.47631e-22)
(3.18095 1.77489 7.79068e-18)
(3.26001 1.71807 -3.5536e-18)
(3.35339 1.68748 1.99462e-18)
(3.46692 1.69358 0)
(3.61259 1.75769 1.19548e-18)
(3.71084 1.93286 6.12199e-19)
(4.20376 2.38763 -9.21898e-19)
(2.74332 2.26893 4.67947e-18)
(2.81048 2.12688 -4.53425e-18)
(2.87594 1.99769 -4.23086e-18)
(2.94181 1.88092 -8.78843e-18)
(3.01067 1.77721 8.41962e-18)
(3.08608 1.68799 -8.03175e-18)
(3.17347 1.61514 0)
(3.28095 1.56275 -1.88553e-18)
(3.41767 1.53905 0)
(3.60269 1.56482 0)
(3.78075 1.70408 0)
(4.26193 2.1295 4.39229e-19)
(2.6171 2.21608 5.02732e-18)
(2.6879 2.06869 -1.01159e-17)
(2.75533 1.93355 9.86029e-18)
(2.82197 1.80961 9.43883e-18)
(2.89082 1.6967 4.53968e-18)
(2.96647 1.59516 0)
(3.05561 1.50469 0)
(3.16824 1.42682 4.33813e-18)
(3.31737 1.36561 0)
(3.5322 1.33859 -1.20959e-18)
(3.77209 1.40301 7.90323e-19)
(4.24829 1.71971 -1.27363e-18)
(2.46877 2.13618 -1.09738e-17)
(2.54443 1.99084 1.01458e-17)
(2.61392 1.85553 -9.91873e-18)
(2.67997 1.7287 -2.48894e-17)
(2.74575 1.60981 -2.46383e-19)
(2.81622 1.49832 1.33893e-19)
(2.89958 1.39168 -4.71714e-18)
(3.00622 1.28809 -4.28528e-18)
(3.153 1.18548 0)
(3.37739 1.09575 3.60813e-18)
(3.64972 1.031 8.89466e-19)
(4.11826 1.02336 -1.78557e-18)
(2.29976 2.02214 -4.88382e-19)
(2.3803 1.88787 0)
(2.45069 1.75978 0)
(2.51343 1.63596 4.75274e-18)
(2.57237 1.51604 1.44795e-17)
(2.63222 1.39916 -4.7189e-18)
(2.7023 1.28117 -2.18094e-19)
(2.79108 1.157 -2.38633e-18)
(2.91748 1.0172 -2.20823e-18)
(3.10908 0.863501 -2.22322e-18)
(3.3899 0.640283 0)
(3.71805 -0.03548 2.32433e-18)
(2.21583 -0.296458 -9.96046e-24)
(1.93436 -0.31583 0)
(1.7669 -0.400607 -1.4255e-19)
(1.65578 -0.508813 0)
(1.58317 -0.631951 -5.83183e-19)
(1.52952 -0.753978 6.26771e-19)
(1.60331 -0.879052 0)
(1.70993 -1.18301 9.7553e-19)
(1.43166 -2.00354 -3.86457e-19)
(1.60476 -2.86295 -9.28266e-20)
(2.00187 -3.12796 -8.66261e-19)
(2.12905 -3.39547 -7.59885e-19)
(2.74068 0.371496 -3.4526e-19)
(2.37798 0.216288 -1.96561e-19)
(2.33355 -0.0390689 6.2555e-19)
(2.33077 -0.312939 0)
(2.38497 -0.609749 -1.12856e-18)
(2.39334 -1.03445 6.65624e-19)
(2.42931 -1.8609 0)
(2.70692 -2.61472 9.76673e-19)
(2.71687 -2.97674 -2.38116e-18)
(2.77678 -3.12934 1.89164e-18)
(2.79771 -3.16351 1.55432e-18)
(2.78455 -3.24537 -3.94015e-18)
(2.98981 0.347667 -1.76177e-19)
(2.69504 0.115021 0)
(2.72153 -0.295172 -1.65801e-18)
(2.74148 -0.768969 0)
(2.81239 -1.40438 0)
(2.9622 -2.14549 -8.28581e-19)
(2.99391 -2.67196 3.99168e-18)
(2.98324 -2.98991 -2.73654e-18)
(2.86052 -3.15299 9.45491e-19)
(2.75314 -3.24988 0)
(2.6707 -3.28688 2.66974e-18)
(2.58495 -3.35398 -1.62943e-18)
(3.31927 0.318234 8.40841e-19)
(3.11076 -0.0642245 1.23611e-18)
(3.20566 -0.625997 1.39094e-18)
(3.26961 -1.27611 2.9031e-18)
(3.33377 -1.93575 -1.70365e-18)
(3.32113 -2.47287 -1.18699e-18)
(3.2038 -2.79154 0)
(3.0729 -2.9728 0)
(2.91277 -3.08725 2.14645e-18)
(2.78787 -3.15163 0)
(2.68122 -3.19175 5.11022e-19)
(2.5794 -3.2448 1.41157e-18)
(3.53859 0.104682 1.26338e-18)
(3.48881 -0.334665 -9.98359e-19)
(3.59865 -0.937029 -2.93371e-18)
(3.63792 -1.57764 0)
(3.59707 -2.13596 0)
(3.46196 -2.51142 2.94976e-18)
(3.28667 -2.72967 0)
(3.11283 -2.86755 -5.84542e-18)
(2.94223 -2.95474 -2.5007e-18)
(2.79101 -3.01609 4.38225e-18)
(2.65922 -3.06624 -5.91134e-18)
(2.53801 -3.12046 3.69851e-18)
(3.73756 -0.104938 -2.63009e-18)
(3.78739 -0.586587 -1.54296e-18)
(3.87721 -1.15302 2.27576e-18)
(3.85262 -1.70851 3.99702e-19)
(3.7254 -2.14375 3.58361e-18)
(3.53777 -2.42605 -7.48888e-18)
(3.33431 -2.60612 6.86992e-18)
(3.13703 -2.72927 7.04611e-19)
(2.95121 -2.81842 0)
(2.78427 -2.88748 0)
(2.63637 -2.94695 8.87661e-18)
(2.50201 -3.0054 6.12888e-20)
(3.90264 -0.324793 -2.89294e-20)
(4.04813 -0.791449 -2.31204e-18)
(4.08509 -1.28042 0)
(4.00143 -1.72599 -4.52699e-18)
(3.82429 -2.06623 4.7303e-18)
(3.60643 -2.30121 1.13045e-17)
(3.38158 -2.46585 6.94145e-18)
(3.16626 -2.58806 8.93867e-19)
(2.96628 -2.68334 -1.08149e-17)
(2.78505 -2.76159 4.73566e-18)
(2.62244 -2.83022 5.073e-18)
(2.47512 -2.89488 2.7403e-19)
(4.08719 -0.533507 2.18663e-19)
(4.29844 -0.937929 3.3228e-18)
(4.26486 -1.32858 0)
(4.13626 -1.67647 -4.81549e-18)
(3.92484 -1.95309 -3.51731e-18)
(3.68228 -2.16239 6.43125e-19)
(3.43737 -2.32219 -1.18394e-17)
(3.204 -2.44859 4.30731e-19)
(2.98771 -2.55204 -2.75644e-19)
(2.79081 -2.63949 5.23113e-18)
(2.6132 -2.71636 -4.22949e-18)
(2.45257 -2.78698 2.24922e-19)
(4.25722 -0.705098 -3.38736e-18)
(4.53067 -1.02843 1.47968e-18)
(4.41884 -1.31477 -7.58273e-18)
(4.24654 -1.583 3.75032e-18)
(4.0063 -1.81438 0)
(3.74232 -2.00749 0)
(3.47943 -2.16712 6.45603e-18)
(3.22977 -2.30043 1.18538e-17)
(2.99855 -2.41335 -5.43799e-18)
(2.78771 -2.51045 -4.96892e-18)
(2.59716 -2.59563 -4.77797e-18)
(2.42494 -2.67248 0)
(4.51136 -0.837831 7.11606e-20)
(4.72016 -1.02426 3.98959e-18)
(4.50239 -1.21137 9.03696e-18)
(4.27018 -1.42805 0)
(4.00341 -1.63148 7.57871e-18)
(3.72558 -1.81675 0)
(3.45509 -1.98121 3.35578e-19)
(3.20035 -2.12513 -5.65333e-18)
(2.96472 -2.25056 6.15059e-18)
(2.74939 -2.35986 0)
(2.55407 -2.4555 0)
(2.37695 -2.54056 -1.06786e-17)
(4.56345 -0.986281 -6.45661e-18)
(4.68335 -0.934373 3.08086e-18)
(4.37457 -1.01537 5.14612e-19)
(4.08421 -1.19431 -8.49618e-18)
(3.81521 -1.3852 -3.32768e-18)
(3.5527 -1.57423 -3.411e-18)
(3.3025 -1.75121 -6.65358e-18)
(3.06776 -1.91153 -1.88191e-17)
(2.84915 -2.05379 -5.52033e-18)
(2.6473 -2.17902 -1.18002e-17)
(2.46212 -2.2883 1.14871e-17)
(2.29217 -2.38447 1.05895e-17)
(4.17846 -0.40252 3.50404e-18)
(4.09776 -0.559343 -1.39245e-18)
(3.79657 -0.683764 3.51727e-19)
(3.55325 -0.875199 7.26671e-18)
(3.36341 -1.08723 0)
(3.17559 -1.29656 -6.57598e-18)
(2.98983 -1.49241 5.89412e-18)
(2.80879 -1.67126 5.25677e-18)
(2.63368 -1.83158 -1.71385e-17)
(2.46689 -1.97394 1.07107e-17)
(2.30957 -2.09812 -1.05098e-17)
(2.16127 -2.20696 0)
(2.23579 -3.64766 -3.56944e-19)
(2.15792 -3.87346 8.67891e-19)
(2.0902 -4.03554 -9.18357e-19)
(1.93596 -4.12037 -2.06998e-19)
(1.79986 -4.13948 -1.61521e-19)
(1.60641 -4.08989 8.61898e-20)
(1.42887 -3.96723 -1.29127e-19)
(1.226 -3.76158 -3.27077e-19)
(1.02788 -3.48262 -9.50808e-19)
(0.786304 -3.1001 0)
(0.376395 -2.681 0)
(-0.224059 -2.53501 -6.60377e-20)
(2.75732 -3.34643 -6.85635e-20)
(2.71256 -3.43622 2.19289e-18)
(2.63054 -3.52987 -8.8704e-19)
(2.50918 -3.62076 0)
(2.35182 -3.69927 1.76523e-18)
(2.19213 -3.73775 0)
(2.03592 -3.73264 1.31201e-18)
(1.89236 -3.67537 2.25346e-18)
(1.78088 -3.56502 -1.91348e-18)
(1.6776 -3.32434 0)
(1.53727 -3.04915 0)
(1.02086 -3.19038 -3.02764e-20)
(2.49794 -3.42044 1.17283e-18)
(2.40788 -3.48969 -1.09127e-18)
(2.31405 -3.55858 1.2313e-18)
(2.2161 -3.61763 0)
(2.12056 -3.65779 -1.31844e-18)
(2.0287 -3.67384 3.29668e-18)
(1.9521 -3.65968 -4.7549e-18)
(1.90103 -3.61634 -5.26665e-18)
(1.87867 -3.5512 3.08751e-18)
(1.87083 -3.41582 0)
(1.8603 -3.19928 6.15127e-19)
(1.74086 -3.41268 1.52732e-19)
(2.48079 -3.29693 1.35519e-18)
(2.38522 -3.3502 -3.04471e-18)
(2.29065 -3.40234 3.08417e-18)
(2.19772 -3.45022 -3.06382e-18)
(2.11094 -3.48922 0)
(2.03601 -3.51484 1.75996e-18)
(1.98086 -3.5231 1.17673e-18)
(1.95513 -3.51694 6.91717e-19)
(1.95922 -3.49291 -1.57493e-18)
(2.01691 -3.42578 0)
(2.1009 -3.24888 -3.56346e-19)
(2.15044 -3.54711 5.94574e-19)
(2.42469 -3.17452 3.54655e-18)
(2.31852 -3.2292 -1.82705e-18)
(2.21871 -3.28308 0)
(2.12651 -3.33374 0)
(2.04564 -3.37853 1.73926e-18)
(1.98088 -3.41589 -1.45575e-18)
(1.9408 -3.44426 -2.58685e-19)
(1.93231 -3.46293 0)
(1.96466 -3.47848 -8.39527e-19)
(2.05364 -3.4757 1.23873e-18)
(2.19728 -3.36115 -1.081e-18)
(2.39687 -3.77394 -2.73568e-19)
(2.37863 -3.06279 -7.51747e-18)
(2.26509 -3.11995 3.58629e-18)
(2.1609 -3.17646 7.21549e-18)
(2.06712 -3.23137 3.57431e-21)
(1.98668 -3.28379 -8.52952e-18)
(1.92396 -3.33343 -3.60467e-18)
(1.88517 -3.38114 -2.46912e-19)
(1.87754 -3.4289 0)
(1.91204 -3.47876 0)
(2.00599 -3.53297 -1.09256e-18)
(2.19599 -3.47945 -7.82774e-19)
(2.51786 -3.93824 2.38617e-19)
(2.34081 -2.95707 4.03644e-18)
(2.21814 -3.01804 -7.9496e-18)
(2.10664 -3.07833 -3.52269e-18)
(2.00705 -3.13823 -2.03486e-19)
(1.92165 -3.19831 3.36869e-18)
(1.85401 -3.25982 3.31988e-18)
(1.80928 -3.32515 1.86956e-18)
(1.79434 -3.39788 1.81793e-18)
(1.82035 -3.48148 -2.01476e-18)
(1.90717 -3.58219 0)
(2.09669 -3.60371 1.25737e-18)
(2.50538 -4.0982 -3.61853e-19)
(2.30673 -2.8535 0)
(2.17398 -2.91772 3.97024e-18)
(2.05358 -2.981 0)
(1.94578 -3.04469 -2.02566e-19)
(1.85205 -3.11049 5.4787e-22)
(1.77491 -3.18093 7.7906e-18)
(1.71809 -3.25999 -1.67871e-18)
(1.6875 -3.35337 -3.89192e-18)
(1.69361 -3.46691 -2.12974e-18)
(1.75773 -3.61258 1.19546e-18)
(1.9329 -3.71083 -2.3398e-18)
(2.38768 -4.20375 1.17729e-18)
(2.26891 -2.74331 4.67946e-18)
(2.12688 -2.81046 -4.53424e-18)
(1.99769 -2.87591 -4.5874e-18)
(1.88092 -2.94179 4.47441e-18)
(1.77722 -3.01064 4.21311e-18)
(1.688 -3.08605 -1.23023e-17)
(1.61515 -3.17344 0)
(1.56277 -3.28093 1.88548e-18)
(1.53907 -3.41765 1.9389e-18)
(1.56485 -3.60268 0)
(1.70412 -3.78074 2.85215e-18)
(2.12955 -4.26192 -2.08747e-18)
(2.21607 -2.61708 0)
(2.06868 -2.68787 -1.01158e-17)
(1.93354 -2.75531 -5.25246e-18)
(1.8096 -2.82194 -9.15614e-18)
(1.6967 -2.89079 4.5396e-18)
(1.59516 -2.96644 4.27079e-18)
(1.5047 -3.05558 0)
(1.42683 -3.16821 0)
(1.36563 -3.31735 0)
(1.33861 -3.53218 0)
(1.40304 -3.77208 -7.92554e-19)
(1.71975 -4.24828 -1.03806e-19)
(2.13616 -2.46875 5.34775e-18)
(1.99083 -2.54441 4.91522e-18)
(1.85553 -2.61389 2.04118e-17)
(1.72869 -2.67994 5.2374e-18)
(1.60981 -2.74572 1.96352e-17)
(1.49832 -2.81619 -4.71792e-18)
(1.39168 -2.89955 -4.71699e-18)
(1.2881 -3.00619 0)
(1.18549 -3.15298 -4.45226e-18)
(1.09577 -3.37737 -2.3993e-18)
(1.03102 -3.6497 -1.82165e-18)
(1.02339 -4.11825 -1.10957e-25)
(2.02213 -2.29974 0)
(1.88786 -2.38027 0)
(1.75978 -2.45066 -2.03151e-17)
(1.63596 -2.5134 -1.47873e-17)
(1.51604 -2.57234 -4.67029e-18)
(1.39916 -2.63219 0)
(1.28117 -2.70227 4.6835e-18)
(1.15701 -2.79105 0)
(1.01722 -2.91746 -1.93465e-19)
(0.863516 -3.10905 2.22314e-18)
(0.640301 -3.38988 6.55353e-19)
(-0.0354646 -3.71803 4.60137e-18)
(-0.296424 -2.21585 1.16913e-19)
(-0.315811 -1.93435 1.82367e-19)
(-0.400581 -1.76689 -1.6379e-19)
(-0.508804 -1.65576 1.45472e-21)
(-0.631888 -1.58317 0)
(-0.75399 -1.52951 2.39325e-20)
(-0.879006 -1.60347 0)
(-1.18308 -1.71005 5.23569e-19)
(-2.00395 -1.43166 1.143e-18)
(-2.86315 -1.605 -3.17139e-20)
(-3.12792 -2.00212 8.41381e-19)
(-3.39547 -2.12918 7.58256e-19)
(0.37153 -2.7407 4.49749e-19)
(0.2163 -2.37798 -6.29544e-19)
(-0.0390464 -2.3336 5.78674e-19)
(-0.312894 -2.33085 -2.28615e-21)
(-0.609799 -2.38516 -1.12859e-18)
(-1.0348 -2.39334 -1.988e-19)
(-1.8615 -2.42952 -1.14815e-18)
(-2.61501 -2.70716 -1.52648e-18)
(-2.97686 -2.71695 2.20303e-18)
(-3.12935 -2.7769 -5.00446e-19)
(-3.16335 -2.79787 7.3803e-19)
(-3.2453 -2.7846 4.60299e-19)
(0.347661 -2.98985 -3.5237e-19)
(0.114924 -2.69512 0)
(-0.29534 -2.72167 0)
(-0.769343 -2.74168 -1.61299e-18)
(-1.40496 -2.81273 0)
(-2.14592 -2.96257 -1.30649e-18)
(-2.67205 -2.99416 6.6433e-19)
(-2.98977 -2.98343 2.4188e-18)
(-3.15276 -2.86064 -1.21114e-18)
(-3.24947 -2.75327 -1.92488e-18)
(-3.28671 -2.67074 -3.76119e-18)
(-3.35384 -2.58497 3.82994e-18)
(0.318074 -3.31927 -1.6819e-18)
(-0.0645229 -3.11089 -1.23645e-18)
(-0.626391 -3.20586 2.45227e-18)
(-1.27654 -3.26988 9.91554e-19)
(-1.93604 -3.33403 0)
(-2.47287 -3.32127 -4.41605e-18)
(-2.79137 -3.20387 3.17686e-18)
(-2.97256 -3.07296 0)
(-3.087 -2.91283 3.17914e-18)
(-3.1514 -2.78792 -5.24359e-18)
(-3.19162 -2.68125 3.58356e-18)
(-3.24468 -2.57941 4.95841e-19)
(0.104452 -3.53855 1.93117e-18)
(-0.335004 -3.48889 3.05736e-18)
(-0.937374 -3.59876 9.80531e-19)
(-1.57788 -3.63801 0)
(-2.13599 -3.59708 -2.70369e-18)
(-2.51124 -3.46196 4.46125e-18)
(-2.72942 -3.28667 0)
(-2.86728 -3.11286 -3.19308e-18)
(-2.95451 -2.94227 -2.99497e-18)
(-3.01591 -2.79105 4.38149e-18)
(-3.06613 -2.65925 0)
(-3.12036 -2.53802 -3.34911e-18)
(-0.105221 -3.73744 2.02704e-18)
(-0.586896 -3.78739 7.39e-19)
(-1.15327 -3.87716 -2.27518e-18)
(-1.70862 -3.85254 -8.89597e-18)
(-2.14367 -3.7253 -3.09812e-19)
(-2.42586 -3.53772 7.82498e-18)
(-2.6059 -3.33429 0)
(-2.72905 -3.13705 8.92576e-18)
(-2.81823 -2.95125 -5.20967e-18)
(-2.88734 -2.78432 4.55462e-18)
(-2.94685 -2.6364 2.88257e-19)
(-3.00533 -2.50203 -6.12772e-20)
(-0.325032 -3.90251 -1.92035e-18)
(-0.791679 -4.04806 -1.47914e-18)
(-1.28058 -4.08495 0)
(-1.72604 -4.00128 9.80589e-18)
(-2.06615 -3.82416 -1.33352e-17)
(-2.30106 -3.60635 -2.19982e-19)
(-2.46567 -3.38155 -1.32116e-17)
(-2.58789 -3.16627 5.52915e-19)
(-2.6832 -2.96632 -5.12534e-18)
(-2.76149 -2.7851 -5.0955e-18)
(-2.83015 -2.62248 5.07231e-18)
(-2.89483 -2.47515 -4.19319e-18)
(-0.533693 -4.08707 -1.69644e-19)
(-0.938097 -4.29834 -1.79842e-18)
(-1.3287 -4.2647 0)
(-1.6765 -4.13608 4.81514e-18)
(-1.95304 -3.9247 3.30212e-18)
(-2.16228 -3.68219 2.9596e-18)
(-2.32205 -3.43734 -5.20117e-19)
(-2.44846 -3.20401 -1.28496e-19)
(-2.55193 -2.98774 -5.67534e-18)
(-2.6394 -2.79085 -6.12554e-19)
(-2.7163 -2.61324 2.38156e-19)
(-2.78694 -2.4526 0)
(-0.70521 -4.2571 2.10882e-18)
(-1.02855 -4.53057 0)
(-1.31485 -4.41868 0)
(-1.58303 -4.24637 -3.75041e-18)
(-1.81434 -4.00615 3.35197e-18)
(-2.00741 -3.74222 -6.9701e-18)
(-2.16702 -3.47938 0)
(-2.30033 -3.22976 5.803e-18)
(-2.41326 -2.99857 -2.4674e-19)
(-2.51038 -2.78775 4.96846e-18)
(-2.59558 -2.59719 -5.21637e-18)
(-2.67245 -2.42498 1.00424e-17)
(-0.837861 -4.51126 4.33262e-18)
(-1.02434 -4.72009 -1.36624e-18)
(-1.21143 -4.50226 -4.81869e-18)
(-1.42807 -4.27004 -8.342e-18)
(-1.63146 -4.00328 0)
(-1.8167 -3.72548 6.32537e-18)
(-1.98114 -3.45502 -1.28573e-17)
(-2.12505 -3.20032 5.72716e-18)
(-2.25048 -2.96472 6.15024e-18)
(-2.3598 -2.7494 0)
(-2.45545 -2.55409 -5.89051e-18)
(-2.54052 -2.37698 -9.95233e-18)
(-0.986286 -4.56342 -6.40516e-18)
(-0.934421 -4.68331 1.40119e-18)
(-1.01541 -4.37449 4.2496e-18)
(-1.19433 -4.0841 3.60057e-18)
(-1.38519 -3.8151 -4.99861e-20)
(-1.57419 -3.5526 -1.05561e-17)
(-1.75115 -3.30242 1.26298e-17)
(-1.91146 -3.06771 2.47449e-17)
(-2.05372 -2.84912 -1.73641e-17)
(-2.17896 -2.6473 -1.17998e-17)
(-2.28825 -2.46212 1.08334e-17)
(-2.38443 -2.29218 0)
(-0.402493 -4.17843 5.41143e-18)
(-0.559349 -4.09773 1.84269e-18)
(-0.683776 -3.79651 1.98779e-18)
(-0.875203 -3.55316 7.81604e-18)
(-1.08721 -3.36331 0)
(-1.29652 -3.17549 6.21975e-18)
(-1.49235 -2.98975 -1.24082e-17)
(-1.6712 -2.80873 -5.49981e-18)
(-1.83152 -2.63364 -5.64049e-18)
(-1.97388 -2.46686 1.07105e-17)
(-2.09807 -2.30955 5.61318e-18)
(-2.20692 -2.16126 1.61492e-17)
(-3.64765 -2.23585 9.45079e-20)
(-3.87343 -2.15796 6.13434e-19)
(-4.0355 -2.09021 2.43355e-19)
(-4.12032 -1.93596 -5.49121e-19)
(-4.13943 -1.79985 1.37114e-19)
(-4.08984 -1.60639 0)
(-3.96719 -1.42885 -5.21525e-19)
(-3.76153 -1.22598 3.95672e-19)
(-3.48259 -1.02786 0)
(-3.10008 -0.786284 1.16062e-19)
(-2.68099 -0.376374 0)
(-2.535 0.224077 -3.00337e-19)
(-3.34634 -2.75739 -4.32386e-18)
(-3.43615 -2.71258 3.04987e-18)
(-3.52981 -2.63054 2.33383e-18)
(-3.62071 -2.50917 -9.87679e-19)
(-3.69922 -2.3518 0)
(-3.73771 -2.1921 0)
(-3.7326 -2.03589 1.49642e-18)
(-3.67533 -1.89233 -1.61249e-18)
(-3.56499 -1.78085 0)
(-3.32432 -1.67756 6.10762e-19)
(-3.04913 -1.53724 -3.78281e-20)
(-3.19037 -1.02084 -1.10685e-18)
(-3.42032 -2.49797 1.67893e-18)
(-3.4896 -2.40789 -2.86548e-18)
(-3.55851 -2.31406 0)
(-3.61757 -2.2161 -3.00778e-18)
(-3.65774 -2.12055 -3.07013e-18)
(-3.6738 -2.02867 6.52261e-18)
(-3.65965 -1.95207 -5.80551e-18)
(-3.61632 -1.90099 0)
(-3.55118 -1.87864 0)
(-3.41581 -1.87079 0)
(-3.19928 -1.86026 -5.37263e-19)
(-3.41267 -1.74082 1.65523e-19)
(-3.29683 -2.4808 -1.35508e-18)
(-3.35012 -2.38522 -4.00687e-19)
(-3.40227 -2.29065 0)
(-3.45017 -2.1977 -3.78279e-19)
(-3.48918 -2.11092 0)
(-3.51482 -2.03598 0)
(-3.52308 -1.98083 1.33684e-18)
(-3.51692 -1.9551 -1.59877e-18)
(-3.4929 -1.95917 1.73543e-18)
(-3.42577 -2.01687 0)
(-3.24888 -2.10085 -5.53383e-19)
(-3.5471 -2.15039 -6.63619e-19)
(-3.17445 -2.4247 7.3888e-18)
(-3.22915 -2.31853 -1.82688e-18)
(-3.28304 -2.2187 3.27171e-18)
(-3.33371 -2.1265 1.46697e-18)
(-3.37851 -2.04562 -4.94561e-18)
(-3.41587 -1.98085 0)
(-3.44425 -1.94076 -1.66535e-18)
(-3.46292 -1.93227 0)
(-3.47847 -1.96462 0)
(-3.47569 -2.05359 1.23876e-18)
(-3.36115 -2.19723 3.13133e-20)
(-3.77393 -2.39682 7.44406e-19)
(-3.06274 -2.37865 -3.50724e-18)
(-3.1199 -2.2651 -2.65983e-19)
(-3.17643 -2.1609 0)
(-3.23135 -2.06711 0)
(-3.28378 -1.98666 -5.39968e-18)
(-3.33342 -1.92393 3.38074e-18)
(-3.38113 -1.88513 3.43548e-18)
(-3.4289 -1.8775 1.78613e-18)
(-3.47876 -1.91199 -4.22843e-18)
(-3.53296 -2.00594 -1.09257e-18)
(-3.47946 -2.19594 0)
(-3.93823 -2.51781 8.49009e-19)
(-2.95703 -2.34084 -8.29017e-18)
(-3.01802 -2.21816 3.4019e-18)
(-3.07831 -2.10664 3.75592e-18)
(-3.13822 -2.00705 2.05429e-19)
(-3.1983 -1.92163 -4.197e-19)
(-3.25982 -1.85398 -3.75724e-18)
(-3.32515 -1.80925 -5.44272e-18)
(-3.39788 -1.7943 -1.94969e-18)
(-3.48148 -1.8203 1.85754e-18)
(-3.58219 -1.90712 0)
(-3.60372 -2.09665 2.12587e-18)
(-4.0982 -2.50533 -5.42158e-19)
(-2.85347 -2.30675 8.43418e-18)
(-2.9177 -2.174 -4.58573e-18)
(-2.98099 -2.05359 -4.25338e-18)
(-3.04469 -1.94577 -7.73237e-18)
(-3.11049 -1.85204 7.55842e-18)
(-3.18093 -1.77489 -1.95132e-19)
(-3.25999 -1.71806 1.12577e-17)
(-3.35337 -1.68747 1.78519e-18)
(-3.46691 -1.69357 2.12963e-18)
(-3.61258 -1.75768 0)
(-3.71084 -1.93286 -1.45542e-18)
(-4.20375 -2.38763 -6.9596e-19)
(-2.74329 -2.26894 0)
(-2.81045 -2.12689 4.34356e-18)
(-2.87591 -1.9977 4.23051e-18)
(-2.94179 -1.88092 -4.31362e-18)
(-3.01065 -1.77721 -1.64741e-19)
(-3.08606 -1.68799 -4.27037e-18)
(-3.17345 -1.61513 -3.82733e-18)
(-3.28094 -1.56274 0)
(-3.41766 -1.53903 -1.9388e-18)
(-3.60268 -1.5648 -1.20357e-18)
(-3.78074 -1.70407 4.66625e-18)
(-4.26192 -2.12951 -9.9962e-19)
(-2.61706 -2.21609 0)
(-2.68786 -2.06869 0)
(-2.7553 -1.93355 0)
(-2.82194 -1.80961 -1.42751e-17)
(-2.8908 -1.69669 9.05418e-18)
(-2.96645 -1.59515 8.69817e-18)
(-3.05559 -1.50468 0)
(-3.16822 -1.4268 -4.33772e-18)
(-3.31735 -1.36559 0)
(-3.53218 -1.33857 -2.47023e-18)
(-3.77208 -1.403 -7.92536e-19)
(-4.24828 -1.71971 -1.27364e-18)
(-2.46872 -2.13617 0)
(-2.54439 -1.99083 0)
(-2.61389 -1.85553 1.04927e-17)
(-2.67994 -1.72869 1.46591e-17)
(-2.74572 -1.6098 4.04641e-19)
(-2.81619 -1.49831 4.85151e-18)
(-2.89956 -1.39166 -2.31127e-18)
(-3.0062 -1.28807 6.48898e-18)
(-3.15299 -1.18546 4.45197e-18)
(-3.37738 -1.09573 2.24001e-18)
(-3.6497 -1.03097 -1.8216e-18)
(-4.11825 -1.02335 -1.95704e-18)
(-2.29971 -2.02213 0)
(-2.38025 -1.88786 0)
(-2.45065 -1.75978 -9.9197e-18)
(-2.5134 -1.63596 5.21957e-18)
(-2.57234 -1.51603 -4.67016e-18)
(-2.6322 -1.39915 -4.71862e-18)
(-2.70228 -1.28115 4.90143e-18)
(-2.79106 -1.15699 0)
(-2.91747 -1.01718 -4.33957e-18)
(-3.10906 -0.863477 -2.31248e-18)
(-3.38988 -0.640257 2.25124e-18)
(-3.71804 0.0355032 -4.62066e-18)
(-2.21584 0.29641 1.16944e-19)
(-1.93435 0.315793 0)
(-1.76688 0.400563 0)
(-1.65576 0.508782 5.57429e-19)
(-1.58316 0.631891 -5.87919e-19)
(-1.52951 0.753958 0)
(-1.6034 0.878998 0)
(-1.71001 1.18304 5.23393e-19)
(-1.43166 2.00382 1.19217e-18)
(-1.60492 2.86312 1.24486e-18)
(-2.00206 3.12798 -2.49233e-20)
(-2.12916 3.39552 7.12578e-19)
(-2.74069 -0.371542 -6.24854e-19)
(-2.37797 -0.216315 0)
(-2.33356 0.039042 0)
(-2.3308 0.312909 -8.91271e-19)
(-2.38506 0.609782 2.32113e-18)
(-2.39334 1.03467 -2.64062e-18)
(-2.42945 1.86128 9.55746e-19)
(-2.70707 2.61494 8.76819e-19)
(-2.71694 2.97687 -2.75873e-19)
(-2.77687 3.1294 8.03823e-19)
(-2.79783 3.16345 0)
(-2.78461 3.24536 -1.82721e-18)
(-2.98984 -0.347697 3.52323e-19)
(-2.69508 -0.114987 0)
(-2.72161 0.295262 0)
(-2.74159 0.769187 -9.4194e-19)
(-2.81259 1.40472 7.12442e-19)
(-2.96241 2.14576 -1.64101e-18)
(-2.99406 2.67206 0)
(-2.98336 2.98988 -3.17593e-18)
(-2.86061 3.1529 3.89341e-18)
(-2.75323 3.24967 -1.09286e-18)
(-2.67074 3.28682 -2.64678e-18)
(-2.58498 3.35393 3.82967e-18)
(-3.31928 -0.318173 -8.40839e-19)
(-3.11084 0.064369 1.2362e-18)
(-3.20578 0.626204 0)
(-3.26976 1.27635 9.91732e-19)
(-3.33392 1.93593 -6.56101e-19)
(-3.32121 2.47292 1.18703e-18)
(-3.20385 2.7915 0)
(-3.07294 2.97271 -2.39513e-18)
(-2.91282 3.08715 -5.32535e-18)
(-2.78791 3.15153 3.65341e-18)
(-2.68125 3.1917 3.58361e-18)
(-2.57942 3.24476 -6.97484e-18)
(-3.53858 -0.104577 9.65342e-19)
(-3.48886 0.334832 -1.24479e-18)
(-3.59871 0.937211 2.93309e-18)
(-3.63797 1.57779 0)
(-3.59708 2.13601 -5.7372e-18)
(-3.46196 2.51137 5.33734e-18)
(-3.28667 2.72958 3.17835e-18)
(-3.11285 2.86743 2.4267e-18)
(-2.94226 2.95464 0)
(-2.79104 3.01601 0)
(-2.65925 3.0662 0)
(-2.53803 3.12042 -7.49963e-19)
(-3.7375 0.105076 5.25952e-18)
(-3.78739 0.586743 0)
(-3.87719 1.15316 -2.27539e-18)
(-3.85258 1.7086 4.64763e-18)
(-3.72535 2.14375 3.53845e-18)
(-3.53774 2.42599 -7.45769e-18)
(-3.3343 2.60603 3.50786e-18)
(-3.13704 2.72918 -1.22494e-17)
(-2.95123 2.81834 -1.90909e-19)
(-2.7843 2.88742 -4.49676e-19)
(-2.63639 2.94691 2.88278e-19)
(-2.50203 3.00537 1.18593e-17)
(-3.90258 0.324915 -6.88633e-18)
(-4.0481 0.791572 4.18368e-18)
(-4.08503 1.28052 -6.46234e-18)
(-4.00136 1.72604 -4.5265e-18)
(-3.82422 2.06622 -8.28939e-18)
(-3.60638 2.30116 -4.4264e-18)
(-3.38156 2.46578 -6.54508e-18)
(-3.16626 2.58799 1.08933e-17)
(-2.9663 2.68328 0)
(-2.78508 2.76155 9.54069e-18)
(-2.62246 2.83019 -1.33986e-17)
(-2.47514 2.89486 4.48808e-18)
(-4.08713 0.533605 -3.13638e-18)
(-4.2984 0.938025 -5.26423e-18)
(-4.26478 1.32866 7.39121e-18)
(-4.13617 1.67651 0)
(-3.92477 1.95309 -4.13832e-18)
(-3.68222 2.16236 6.29942e-18)
(-3.43734 2.32213 -3.2004e-19)
(-3.20399 2.44853 1.28506e-19)
(-2.98771 2.55198 -5.24105e-18)
(-2.79082 2.63945 -9.91049e-18)
(-2.61321 2.71633 4.44663e-18)
(-2.45258 2.78696 -4.51081e-18)
(-4.25717 0.705164 2.10886e-18)
(-4.53062 1.02851 0)
(-4.41876 1.31483 0)
(-4.24645 1.58303 0)
(-4.00622 1.81438 3.35193e-18)
(-3.74226 2.00747 0)
(-3.47939 2.16708 -4.10533e-19)
(-3.22975 2.30038 1.15233e-17)
(-2.99854 2.41331 2.81809e-19)
(-2.78772 2.51041 4.96855e-18)
(-2.59716 2.5956 -5.02127e-18)
(-2.42495 2.67246 1.48608e-17)
(-4.51132 0.837861 7.11528e-20)
(-4.72012 1.02431 7.25045e-18)
(-4.50232 1.21141 -2.21827e-18)
(-4.2701 1.42807 0)
(-4.00333 1.63148 0)
(-3.72552 1.81673 0)
(-3.45504 1.98118 0)
(-3.20031 2.12509 5.98601e-18)
(-2.9647 2.25051 -2.30244e-17)
(-2.74938 2.35982 -1.13963e-17)
(-2.55406 2.45546 1.10119e-17)
(-2.37695 2.54053 5.8998e-18)
(-4.56344 0.986296 -6.40492e-18)
(-4.68332 0.934406 -4.25856e-18)
(-4.37452 1.0154 -2.53851e-18)
(-4.08415 1.19432 0)
(-3.81515 1.38521 0)
(-3.55264 1.57422 7.09185e-18)
(-3.30245 1.75118 -1.31138e-17)
(-3.06772 1.91149 2.49612e-17)
(-2.84912 2.05376 1.77003e-17)
(-2.64729 2.17899 1.11114e-17)
(-2.46211 2.28827 -1.08332e-17)
(-2.29216 2.38444 6.27351e-19)
(-4.17844 0.402517 -1.83071e-18)
(-4.09774 0.559355 0)
(-3.79654 0.683779 3.80521e-18)